<?xml version="1.0"?>
<VTKFile type="UnstructuredGrid"  version="0.1"  >
<UnstructuredGrid>
<Piece  NumberOfPoints="2087" NumberOfCells="4026">
<Points>
<DataArray  type="Float64"  NumberOfComponents="3"  format="ascii">1.25057742337572 -0.3738452668956793 0  1.25057742337572 -0.4914023173541739 0  1.362380822250709 -0.527729443754442 0  1.431479122813215 -0.4326237921249266 0  1.362380822250709 -0.3375181404954113 0  0.7419976537719674 -1.073845266895679 0  0.7419976537719672 -1.191402317354174 0  0.8538010526469568 -1.227729443754442 0  0.922899353209462 -1.132623792124926 0  0.8538010526469568 -1.037518140495411 0  -0.08090169943749501 -1.341221474770752 0  -0.08090169943749502 -1.458778525229247 0  0.03090169943749447 -1.495105651629515 0  0.09999999999999974 -1.4 0  0.03090169943749449 -1.304894348370484 0  -0.9038010526469572 -1.073845266895679 0  -0.9038010526469573 -1.191402317354173 0  -0.7919976537719677 -1.227729443754442 0  -0.7228993532094625 -1.132623792124926 0  -0.7919976537719677 -1.037518140495411 0  -1.41238082225071 -0.3738452668956783 0  -1.41238082225071 -0.4914023173541729 0  -1.300577423375721 -0.527729443754441 0  -1.231479122813215 -0.4326237921249256 0  -1.300577423375721 -0.3375181404954103 0  -1.412380822250709 0.4914023173541738 0  -1.412380822250709 0.3738452668956792 0  -1.30057742337572 0.3375181404954111 0  -1.231479122813215 0.4326237921249265 0  -1.30057742337572 0.5277294437544419 0  -0.9038010526469569 1.191402317354174 0  -0.9038010526469569 1.073845266895679 0  -0.7919976537719674 1.037518140495411 0  -0.7228993532094622 1.132623792124926 0  -0.7919976537719674 1.227729443754442 0  -0.08090169943749466 1.458778525229247 0  -0.08090169943749467 1.341221474770753 0  0.03090169943749481 1.304894348370484 0  0.1000000000000001 1.4 0  0.03090169943749483 1.495105651629515 0  0.7419976537719677 1.191402317354174 0  0.7419976537719677 1.073845266895679 0  0.8538010526469572 1.037518140495411 0  0.9228993532094624 1.132623792124926 0  0.8538010526469572 1.227729443754442 0  1.25057742337572 0.4914023173541737 0  1.25057742337572 0.373845266895679 0  1.362380822250709 0.337518140495411 0  1.431479122813215 0.4326237921249264 0  1.362380822250709 0.5277294437544418 0  0.5663118960624632 -0.4114496766047314 0  0.5663118960624631 -0.529006727063226 0  0.6781152949374527 -0.5653338534634941 0  0.7472135954999579 -0.4702282018339787 0  0.6781152949374527 -0.3751225502044634 0  0.166311896062463 -0.7020666878068756 0  0.166311896062463 -0.8196237382653703 0  0.2781152949374525 -0.8559508646656383 0  0.3472135954999578 -0.760845213036123 0  0.2781152949374526 -0.6657395614066076 0  -0.3281152949374528 -0.7020666878068755 0  -0.3281152949374528 -0.8196237382653702 0  -0.2163118960624633 -0.8559508646656382 0  -0.147213595499958 -0.7608452130361228 0  -0.2163118960624633 -0.6657395614066075 0  -0.7281152949374528 -0.4114496766047311 0  -0.7281152949374528 -0.5290067270632257 0  -0.6163118960624633 -0.5653338534634939 0  -0.5472135954999581 -0.4702282018339785 0  -0.6163118960624633 -0.3751225502044631 0  -0.8809016994374947 0.05877852522924742 0  -0.8809016994374947 -0.05877852522924721 0  -0.7690983005625053 -0.09510565162951527 0  -0.7000000000000001 9.797174393178826e-17 0  -0.7690983005625053 0.09510565162951545 0  -0.7281152949374526 0.5290067270632259 0  -0.7281152949374528 0.4114496766047313 0  -0.6163118960624632 0.3751225502044633 0  -0.547213595499958 0.4702282018339786 0  -0.6163118960624632 0.565333853463494 0  -0.3281152949374526 0.8196237382653703 0  -0.3281152949374526 0.7020666878068756 0  -0.2163118960624631 0.6657395614066076 0  -0.1472135954999579 0.760845213036123 0  -0.2163118960624631 0.8559508646656383 0  0.1663118960624632 0.8196237382653702 0  0.1663118960624632 0.7020666878068755 0  0.2781152949374527 0.6657395614066075 0  0.347213595499958 0.7608452130361228 0  0.2781152949374527 0.8559508646656382 0  0.5663118960624633 0.5290067270632258 0  0.5663118960624633 0.4114496766047312 0  0.6781152949374528 0.3751225502044632 0  0.747213595499958 0.4702282018339785 0  0.6781152949374528 0.5653338534634939 0  0.7190983005625053 0.05877852522924733 0  0.7190983005625053 -0.05877852522924731 0  0.8309016994374948 -0.09510565162951537 0  0.9 0 0  0.8309016994374948 0.09510565162951536 0  -1.2 1.469576158976824e-16 0  -1.185226008714165 -0.1877213580482769 0  -1.141267819554185 -0.3708203932499363 0  -1.069207829026041 -0.544788599687456 0  -0.9708203932499371 -0.7053423027509677 0  -0.8485281374238572 -0.8485281374238569 0  -0.7053423027509679 -0.9708203932499367 0  -0.5447885996874563 -1.069207829026041 0  -0.370820393249937 -1.141267819554184 0  -0.1877213580482772 -1.185226008714165 0  -2.204364238465236e-16 -1.2 0  0.1877213580482768 -1.185226008714165 0  0.3708203932499367 -1.141267819554184 0  0.544788599687456 -1.069207829026041 0  0.7053423027509674 -0.9708203932499371 0  0.8485281374238568 -0.8485281374238572 0  0.9708203932499367 -0.705342302750968 0  1.069207829026041 -0.5447885996874563 0  1.141267819554184 -0.3708203932499372 0  1.185226008714165 -0.1877213580482773 0  1.2 0 0  1.185226008714165 0.187721358048277 0  1.141267819554184 0.3708203932499369 0  1.069207829026041 0.5447885996874561 0  0.9708203932499369 0.7053423027509678 0  0.848528137423857 0.8485281374238569 0  0.7053423027509678 0.9708203932499369 0  0.5447885996874562 1.069207829026041 0  0.3708203932499369 1.141267819554184 0  0.1877213580482771 1.185226008714165 0  7.347880794884119e-17 1.2 0  -0.1877213580482767 1.185226008714165 0  -0.3708203932499368 1.141267819554184 0  -0.544788599687456 1.069207829026041 0  -0.7053423027509677 0.9708203932499369 0  -0.8485281374238569 0.848528137423857 0  -0.9708203932499367 0.7053423027509679 0  -1.069207829026041 0.5447885996874562 0  -1.141267819554184 0.370820393249937 0  -1.185226008714165 0.1877213580482772 0  -0.9829730996839018 -0.1837495178165701 0  -1 1.224646799147353e-16 0  -0.9829730996839018 0.1837495178165704 0  -0.9324722294043557 0.3612416661871533 0  -0.850217135729614 0.5264321628773561 0  -0.7390089172206593 0.6736956436465571 0  -0.6026346363792563 0.7980172272802396 0  -0.4457383557765378 0.8951632913550626 0  -0.2736629900720829 0.961825643172819 0  -0.09226835946330189 0.9957341762950346 0  0.09226835946330202 0.9957341762950345 0  0.273662990072083 0.961825643172819 0  0.4457383557765383 0.8951632913550623 0  0.6026346363792564 0.7980172272802395 0  0.7390089172206591 0.6736956436465572 0  0.8502171357296142 0.5264321628773557 0  0.9324722294043558 0.3612416661871529 0  0.9829730996839018 0.1837495178165703 0  1 0 0  0.9829730996839018 -0.1837495178165701 0  0.9324722294043558 -0.361241666187153 0  0.8502171357296139 -0.5264321628773562 0  0.7390089172206585 -0.6736956436465578 0  0.6026346363792562 -0.7980172272802397 0  0.4457383557765377 -0.8951632913550626 0  0.2736629900720828 -0.961825643172819 0  0.09226835946330243 -0.9957341762950345 0  -0.09226835946330192 -0.9957341762950346 0  -0.2736629900720831 -0.961825643172819 0  -0.4457383557765389 -0.895163291355062 0  -0.6026346363792572 -0.7980172272802389 0  -0.7390089172206591 -0.6736956436465572 0  -0.8502171357296141 -0.5264321628773558 0  -0.9324722294043559 -0.3612416661871527 0  -2.998548846875964 0.09329958680951025 0  -2.998548846875964 -0.09329958680950952 0  -2.986948043907056 -0.2795378024522158 0  -2.96379131922227 -0.4646945406422534 0  -2.929168261690821 -0.6480534659294495 0  -2.883212821196174 -0.8289051982524908 0  -2.826102790409967 -1.006550057392575 0  -2.758059116946709 -1.180300769900256 0  -2.679345048560375 -1.349485128022907 0  -2.590265114689991 -1.513448590345919 0  -2.491163948294393 -1.671556814086285 0  -2.38242495253426 -1.823198109241595 0  -2.264468817459772 -1.967785805099819 0  -2.137751892442521 -2.10476051995433 0  -2.002764420648462 -2.233592325243045 0  -1.860028642382326 -2.353782795739098 0  -1.710096774641347 -2.464866937861203 0  -1.553548874694977 -2.566414988643491 0  -1.390990595955982 -2.658034078404945 0  -1.223050844825068 -2.739369750685856 0  -1.050379347574173 -2.810107333571024 0  -0.873644136681756 -2.869973157094259 0  -0.6935289663449103 -2.918735612014312 0  -0.5107306671671963 -2.956206045866044 0  -0.3259564502564232 -2.982239492820158 0  -0.1399211711622538 -2.996735234527832 0  0.04665543576105231 -2.999637189780449 0  0.2330515418670193 -2.990934131476888 0  0.4185460168317681 -2.970659730059008 0  0.6024212185671552 -2.938892423247245 0  0.7839657696385802 -2.895755112580307 0  0.9624773094461021 -2.841414687933001 0  1.137265211521135 -2.776081381851726 0  1.307653255426114 -2.70000795620559 0  1.472982242919966 -2.613488724299851 0  1.632612548268082 -2.516858412234904 0  1.785926592829997 -2.410490863916028 0  1.932331234351193 -2.294797594723943 0  2.071260061715239 -2.170226199441751 0  2.202175586278381 -2.037258620597657 0  2.324571321308669 -1.89640928392298 0  2.43797374148475 -1.748223108138904 0  2.541944114873332 -1.593273396771826 0  2.636080200297805 -1.432159620153384 0  2.720017803531218 -1.265505096186186 0  2.793432186292979 -1.093954578847967 0  2.856039322598189 -0.9181717637636621 0  2.907596997598998 -0.7388367204960059 0  2.947905744666791 -0.5566432614884806 0  2.976809617089829 -0.372296257839778 0  2.994196791400783 -0.1865089122944406 0  3 0 0  2.994196791400783 0.1865089122944416 0  2.976809617089829 0.372296257839778 0  2.947905744666791 0.5566432614884798 0  2.907596997598998 0.738836720496004 0  2.85603932259819 0.9181717637636619 0  2.793432186292979 1.093954578847966 0  2.720017803531218 1.265505096186187 0  2.636080200297807 1.432159620153381 0  2.541944114873333 1.593273396771825 0  2.437973741484751 1.748223108138903 0  2.32457132130867 1.896409283922979 0  2.20217558627838 2.037258620597658 0  2.07126006171524 2.170226199441749 0  1.932331234351194 2.294797594723943 0  1.785926592829998 2.410490863916027 0  1.632612548268082 2.516858412234904 0  1.472982242919967 2.6134887242
[...]
<PointData  Vectors="f_456"> 
<DataArray  type="Float64"  Name="f_456"  NumberOfComponents="3" format="ascii">2.1101430340327392e-08 1.9324178640885416e-08 0.0000000000000000e+00  -2.3761551926795536e-08 1.8792894759236064e-08 0.0000000000000000e+00  -2.7257113352531073e-08 7.6903884248838273e-09 0.0000000000000000e+00  2.9870759991583156e-09 -2.6549538912537963e-08 0.0000000000000000e+00  3.9500004443687158e-08 1.4039066212194229e-08 0.0000000000000000e+00  7.7413338039617437e-09 2.3145649497850452e-08 0.0000000000000000e+00  4.8589725004395557e-09 4.1519620487404749e-08 0.0000000000000000e+00  -2.3489797993394747e-08 -4.0731935940549115e-09 0.0000000000000000e+00  1.2993556606976716e-08 -2.4249091800632459e-08 0.0000000000000000e+00  2.4802885469829853e-08 -1.5890847673331915e-08 0.0000000000000000e+00  1.3871527630589793e-08 2.8684292473408552e-08 0.0000000000000000e+00  -4.2348147987016508e-09 2.9715937823653328e-08 0.0000000000000000e+00  -2.1588298494411120e-08 -9.3185524382029447e-09 0.0000000000000000e+00  2.3773787333346329e-08 -3.4600836515521742e-08 0.0000000000000000e+00  2.2515895319793485e-08 -1.3843270827466058e-08 0.0000000000000000e+00  4.1420229311749708e-08 1.5330246915210740e-08 0.0000000000000000e+00  -1.1910862902883660e-08 2.2548656972456092e-08 0.0000000000000000e+00  -2.0228634439478424e-08 -1.9161974960034400e-08 0.0000000000000000e+00  -3.8011544463643493e-09 -3.2107437580644534e-08 0.0000000000000000e+00  2.1132668469012027e-08 5.7611818477553891e-10 0.0000000000000000e+00  2.2942100004770225e-08 1.3516921150543537e-08 0.0000000000000000e+00  -1.8658601314303947e-08 1.8295864661026669e-08 0.0000000000000000e+00  -1.9526806519339823e-08 -3.6683222608157377e-08 0.0000000000000000e+00  -8.8106428582041739e-09 -2.0187982195755987e-08 0.0000000000000000e+00  3.2118631165091906e-08 -6.4941246502852162e-09 0.0000000000000000e+00  1.3588875859415475e-08 1.7175188072858188e-08 0.0000000000000000e+00  -2.7839802926513139e-08 1.5295027513191714e-08 0.0000000000000000e+00  -3.0868177571071151e-08 -2.4687534111139098e-09 0.0000000000000000e+00  8.8445498515490847e-09 -2.2235762945760949e-08 0.0000000000000000e+00  2.3842635506841920e-08 -2.9676791596137680e-08 0.0000000000000000e+00  1.2569136652421700e-08 2.1232269211107955e-08 0.0000000000000000e+00  -3.8622193696858312e-08 1.3832051005354190e-08 0.0000000000000000e+00  -2.4275806456415160e-08 -4.7611841271177108e-10 0.0000000000000000e+00  7.7732048670124163e-09 -2.9361949498314362e-08 0.0000000000000000e+00  1.8219039359045757e-08 -1.9440063804445515e-08 0.0000000000000000e+00  5.7002546455378320e-09 2.5891707334180756e-08 0.0000000000000000e+00  -7.5480016570881724e-09 2.7487154794128658e-08 0.0000000000000000e+00  -2.3737787474922399e-08 -1.3644514171459847e-08 0.0000000000000000e+00  -2.2565697399603805e-08 -3.4184016869772290e-08 0.0000000000000000e+00  2.6078627171696538e-08 -1.1858444066520232e-08 0.0000000000000000e+00  2.0387652820567702e-09 3.8735200219795693e-08 0.0000000000000000e+00  -8.8389737334389852e-09 2.5646149508155441e-08 0.0000000000000000e+00  -2.4174738181992098e-08 -1.7728516636368307e-08 0.0000000000000000e+00  -1.3950474993027832e-08 -2.4773310460684715e-08 0.0000000000000000e+00  2.4111439226109742e-08 -3.9876088273925724e-09 0.0000000000000000e+00  2.5780761405754313e-08 1.8446691102625791e-08 0.0000000000000000e+00  -2.2534690131037420e-08 1.8154213848163121e-08 0.0000000000000000e+00  -3.6162286702137329e-08 1.0531210300974223e-08 0.0000000000000000e+00  -3.6028455219499605e-09 -2.4394127132178516e-08 0.0000000000000000e+00  2.6340047741024456e-08 1.3732672606504662e-09 0.0000000000000000e+00  -1.0648823239932850e-08 -1.3570518179443413e-08 0.0000000000000000e+00  4.9441956272480063e-08 4.5092520549402677e-09 0.0000000000000000e+00  2.0761590317464229e-08 -3.3561680339514961e-09 0.0000000000000000e+00  -3.0425589586254287e-09 2.2888380021184249e-08 0.0000000000000000e+00  -1.1556826769122388e-08 3.8523858001005847e-08 0.0000000000000000e+00  -3.0819665361088367e-09 -2.2641528537253530e-08 0.0000000000000000e+00  4.4872420192214144e-08 -1.9636751540777093e-08 0.0000000000000000e+00  -3.4453127573046935e-09 -2.3871959358681035e-10 0.0000000000000000e+00  2.9398690937201114e-08 4.5467229092017275e-08 0.0000000000000000e+00  -1.5211186807958433e-08 1.7064577384675915e-08 0.0000000000000000e+00  1.5793496657325764e-08 -3.6795226518631992e-08 0.0000000000000000e+00  -5.5814220420282629e-09 -1.8315115608672406e-08 0.0000000000000000e+00  3.1603309243971354e-08 1.0130823199658672e-08 0.0000000000000000e+00  3.3978788892796557e-08 2.2928171419949638e-08 0.0000000000000000e+00  -1.7937099067141131e-08 4.8023934036679085e-09 0.0000000000000000e+00  -1.6674265234999242e-08 -2.4824231884972117e-08 0.0000000000000000e+00  6.7391437353002656e-11 -3.5425298901574574e-09 0.0000000000000000e+00  4.5541091898808104e-08 -5.0898831678827436e-09 0.0000000000000000e+00  9.0689184552976977e-09 2.1554788390966627e-08 0.0000000000000000e+00  -2.0187019714840208e-08 -7.6462739807269274e-09 0.0000000000000000e+00  -1.7155529849414434e-08 -1.0466048262240065e-08 0.0000000000000000e+00  1.7141666127035085e-08 -1.8589779583406063e-09 0.0000000000000000e+00  3.1922865678284755e-08 -2.7017634272346136e-08 0.0000000000000000e+00  2.1995208982559849e-10 1.8420278093900228e-08 0.0000000000000000e+00  -3.2013587224322662e-08 -2.7459214618532813e-08 0.0000000000000000e+00  1.6589965063368298e-09 1.8844488075879321e-09 0.0000000000000000e+00  1.3630387816821298e-08 -2.8071667154665289e-08 0.0000000000000000e+00  2.1120437044416125e-08 -7.8843618240623259e-09 0.0000000000000000e+00  -1.1776914536073103e-08 1.8339641595046061e-08 0.0000000000000000e+00  -2.9609389186612339e-08 5.1381263645376033e-09 0.0000000000000000e+00  3.0731081534680901e-09 -1.8137755170452547e-08 0.0000000000000000e+00  -1.8222570377515847e-08 -4.1654224379907898e-08 0.0000000000000000e+00  1.4579571192604067e-08 4.3657246158840208e-09 0.0000000000000000e+00  -3.1547345970988191e-08 2.2936172560804721e-08 0.0000000000000000e+00  -3.0937705684613576e-08 1.0023426712157778e-08 0.0000000000000000e+00  -4.4477287494804994e-08 -1.7943820205860387e-08 0.0000000000000000e+00  2.4038305505808993e-09 -2.2565315143227572e-08 0.0000000000000000e+00  1.5354322080361437e-08 1.4898788299453614e-08 0.0000000000000000e+00  -2.0066281685436626e-08 3.9096497742052032e-08 0.0000000000000000e+00  1.3278105113240705e-08 -4.4629612226198106e-09 0.0000000000000000e+00  -4.2208461737654406e-08 1.7273384826122362e-09 0.0000000000000000e+00  8.2162691938453581e-09 -1.2966891953203435e-08 0.0000000000000000e+00  1.2381274312353464e-08 3.6199255932856593e-08 0.0000000000000000e+00  1.1041166108771310e-08 1.1682928807665827e-08 0.0000000000000000e+00  -1.4852729686305493e-08 -5.2382729133296744e-09 0.0000000000000000e+00  -2.0572758026108461e-08 -6.4626476302112448e-09 0.0000000000000000e+00  1.8260610719795783e-08 -8.0379595288379357e-09 0.0000000000000000e+00  2.9476739828249670e-08 1.9939870925052848e-08 0.0000000000000000e+00  1.8352139102400570e-10 2.5362927614238467e-09 0.0000000000000000e+00  -2.7628697303476246e-08 1.5089036534517046e-08 0.0000000000000000e+00  1.9740478524934631e-09 -1.2389674539640056e-07 0.0000000000000000e+00  3.6616668711890809e-08 -1.5360119314876549e-07 0.0000000000000000e+00  5.1540591341773265e-08 -1.5786244935383237e-07 0.0000000000000000e+00  3.7133145706460056e-08 -1.1353813813789166e-07 0.0000000000000000e+00  6.8966102196493177e-08 -9.9118036198612431e-08 0.0000000000000000e+00  1.0020718559166801e-07 -8.5246095123431092e-08 0.0000000000000000e+00  1.3326919506385410e-07 -9.6456827004949395e-08 0.0000000000000000e+00  1.4913977976619767e-07 -9.1521361928319816e-08 0.0000000000000000e+00  1.3576241479131209e-07 -4.2564711132381027e-08 0.0000000000000000e+00  1.6071030417041261e-07 -1.1266006676181363e-08 0.0000000000000000e+00  1.4345496416763305e-07 3.1636856461143122e-09 0.0000000000000000e+00  1.6698354869021370e-07 1.4205542352903191e-08 0.0000000000000000e+00  1.2829789046239499e-07 4.0075660804265008e-08 0.0000000000000000e+00  1.3057945869043830e-07 8.2604792762035988e-08 0.0000000000000000e+00  1.3961644264415912e-07 9.8627032708123128e-08 0.0000000000000000e+00  1.0470747699816596e-07 8.8123267329614206e-08 0.0000000000000000e+00  6.5332100192697532e-08 9.3095599161215585e-08 0.0000000000000000e+00  5.3593142757232613e-08 1.3706441748267706e-07 0.0000000000000000e+00  4.6229013989093704e-08 1.4715638013153257e-07 0.0000000000000000e+00  3.6205601316789345e-08 1.6589927436314260e-07 0.0000000000000000e+00  1.2637394113547222e-09 1.2663652537397611e-07 0.0000000000000000e+00  -3.6347131970849576e-08 1.4223815228997294e-07 0.0000000000000000e+00  -4.2215661079180766e-08 1.4135323563370215e-07 0.0000000000000000e+00  -5.9021072898104447e-08 1.4908302532804966e-07 0.0000000000000000e+00  -7.9363802863667673e-08 1.0804279552823940e-07 0.0000000000000000e+00  -1.0438259891325241e-07 8.4647870993838113e-08 0.0000000000000000e+00  -1.3553119941816289e-07 9.2230730478698434e-08 0.0000000000000000e+00  -9.8074485458282366e-08 6.5157529091853436e-08 0.0000000000000000e+00  -1.3370039867276518e-07 4.4691427760852778e-08 0.0000000000000000e+00  -1.5694166166249861e-07 1.2102506613498875e-08 0.0000000000000000e+00  -1.6588192907727885e-07 2.3534241936759739e-09 0.0000000000000000e+00  -1.5256175657366418e-07 -1.0564237629512865e-08 0.0000000000000000e+00  -1.2255587615916271e-07 -4.1173295158853762e-08 0.0000000000000000e+00  -1.4468303925924982e-07 -9.0405117495770537e-08 0.0000000000000000e+00  -1.3786491857152060e-07 -1.0213668602506612e-07 0.0000000000000000e+00  -1.0788351443567934e-07 -9.1215498711620298e-08 0.0000000000000000e+00  -8.9549971228691026e-08 -1.2015264000255764e-07 0.0000000000000000e+00  -4.9965244658757153e-08 -1.2543483403913937e-07 0.0000000000000000e+00  -5.5305148902041780e-08 -1.5795485532962085e-07 0.0000000000000000e+00  -4.0537407584170455e-08 -1.6949559899412556e-07 0.0000000000000000e+00  4.3119367388248323e-08 -1.8202043452751494e-07 0.0000000000000000e+00  -1.2361110521694506e-09 -2.0623089131762157e-07 0.0000000000000000e+00  -4.1336325599906739e-08 -1.6989887104358719e-07 0.0000000000000000e+00  -6.1378801372714166e-08 -1.6871459283252371e-07 0.0000000000000000e+00  -9.5886060822618554e-08 -1.7701604938214447e-07 0.0000000000000000e+00  -1.2284138197410929e-07 -1.2134827578444775e-07 0.0000000000000000e+00  -1.5211922516397344e-07 -1.1141972895696372e-07 0.0000000000000000e+00  -1.5667589015771070e-07 -9.3791264361949686e-08 0.0000000000000000e+00  -1.8820042681478928e-07 -5.0390263390586947e-08 0.0000000000000000e+00  -2.0467102315596677e-07 -1.4129260251398099e-08 0.0000000000000000e+00  -2.1600359047701272e-07 1.3474954585232866e-08 0.0000000000000000e+00  -2.2624521317156282e-07 6.8650848806429048e-08 0.0000000000000000e+00  -1.6060284951901330e-07 8.8972397756546649e-08 0.0000000000000000e+00  -1.5608526016187660e-07 1.1504029580052307e-07 0.0000000000000000e+00  -1.5279688503913654e-07 1.5814603362766489e-07 0.0000000000000000e+00  -1.1422078426162840e-07 1.9321298690499740e-07 0.0000000000000000e+00  -6.1638365184360532e-08 1.6574092244051019e-07 0.0000000000000000e+00  -3.9013831629673034e-08 1.6241661762186208e-07 0.0000000000000000e+00  3.4457223807385575e-09 2.4194760236685114e-07 0.0000000000000000e+00  3.7319077014463266e-08 1.6806298323285090e-07 0.0000000000000000e+00  6.1084040516148227e-08 1.6519002831738434e-07 0.0000000000000000e+00  1.0480164159291783e-07 1.7087237724453382e-07 0.0000000000000000e+00  1.3007428470852218e-07 1.3530791344524047e-07 0.0000000000000000e+00  1.2997070619344476e-07 9.4662294161677876e-08 0.0000000000000000e+00  2.1318164986523733e-07 1.1744313418275270e-07 0.0000000000000000e+00  2.3656170862294699e-07 5.9180903504569570e-08 0.0000000000000000e+00  2.3591058904636454e-07 1.4186120282108761e-08 0.0000000000000000e+00  2.1074544976363031e-07 -1.5586638679721404e-08 0.0000000000000000e+00  1.7986906523504514e-07 -4.7026580390139822e-08 0.0000000000000000e+00  1.7295582658263530e-07 -1.0416953944404871e-07 0.0000000000000000e+00  1.3240015870790176e-07 -9.4770064778080073e-08 0.0000000000000000e+00  1.2764250854470253e-07 -1.3184828699120098e-07 0.0000000000000000e+00  1.0490991852867821e-07 -1.6618664799710632e-07 0.0000000000000000e+00  7.0067544624392537e-08 -1.8488007007373601e-07 0.0000000000000000e+00  6.5556911414208740e-13 -1.8475179334947327e-11 0.0000000000000000e+00  -4.2689008802839793e-14 -1.7469856581989936e-11 0.0000000000000000e+00  2.1896043171215271e-12 -1.2496900628480281e-11 0.0000000000000000e+00  -8.7157799142638257e-13 -2.3344471737712486e-12 0.0000000000000000e+00  -1.9880537137874924e-12 6.9636656347670060e-12 0.0000000000000000e+00  -5.1301541855166777e-12 1.4426265030535508e-11 0.0000000000000000e+00  -4.7202319977677779e-12 1.4469275565692112e-11 0.0000000000000000e+00  -4.5470390922685786e-12 9.9736883846269456e-12 0.0000000000000000e+00  -1.0300925267452474e-12 1.1290322208323567e-12 0.0000000000000000e+00  4.6035836259059022e-12 -7.1174829388114538e-12 0.0000000000000000e+00  7.2049366776186663e-12 -9.7709097991304384e-12 0.0000000000000000e+00  9.6156738060707837e-12 -1.0375720592292089e-11 0.0000000000000000e+00  5.1428895823188273e-12 -7.4345533101992165e-12 0.0000000000000000e+00  -1.4439486773513483e-12 -3.8622967429792031e-12 0.0000000000000000e+00  -7.2991607209154768e-12 5.8711473788716938e-12 0.0000000000000000e+00  -1.2145490474406786e-11 9.3621962266396183e-12 0.0000000000000000e+00  -1.3104335704852250e-11 1.0306386977815269e-11 0.0000000000000000e+00  -1.0811906083645261e-11 6.8394733587841892e-12 0.0000000000000000e+00  -2.7114102635390481e-12 9.0084385956684505e-13 0.0000000000000000e+00  7.6033936659589289e-12 -2.9515397351863944e-12 0.0000000000000000e+00  1.4730051953467770e-11 -3.7687936719038487e-12 0.0000000000000000e+00  1.6369131022370970e-11 -4.7835214943042345e-12 0.0000000000000000e+00  1.1264432744760116e-11 -3.4371224515118652e-12 0.0000000000000000e+00  5.2180647982529510e-12 -5.7890622999452749e-13 0.0000000000000000e+00  -8.2309485605826193e-12 -1.2557216527559364e-12 0.0000000000000000e+00  -1.2350586129489175e-11 1.1890309266408518e-12 0.0000000000000000e+00  -1.4262413907174315e-11 1.0062087893712970e-13 0.0000000000000000e+00  -1.0887491465004985e-11 2.9239005896455866e-12 0.0000000000000000e+00  -7.4084316236525146e-13 -8.6356568217897478e-14 0.0000000000000000e+00  9.5985331461763666e-12 2.5860812334194358e-12 0.0000000000000000e+00  1.4413079122591783e-11 3.5248064329341813e-12 0.0000000000000000e+00  1.6833747425331304e-11 4.6295488656634072e-12 0.0000000000000000e+00  1.1295466243795980e-11 5.4461405215824213e-12 0.0000000000000000e+00  2.1608361555730071e-12 1.3593301267510330e-12 0.0000000000000000e+00  -4.6444591005546739e-12 -3.3834382696639005e-12 0.0000000000000000e+00  -1.1224111317821404e-11 -7.1022830512242617e-12 0.0000000000000000e+00  -1.2282138749199026e-11 -9.2119962799122405e-12 0.0000000000000000e+00  -8.8392137066674784e-12 -7.1584365133438595e-12 0.0000000000000000e+00  -1.3976788087503370e-12 -8.0574878520818381e-13 0.0000000000000000e+00  5.2028479551697785e-12 4.2483861309049415e-12 0.0000000000000000e+00  1.0051953822611564e-11 1.1658025635131706e-11 0.0000000000000000e+00  1.0097229671062511e-11 1.4181103705927289e-11 0.0000000000000000e+00  7.0025966062852815e-12 1.1274858230255742e-11 0.0000000000000000e+00  2.9638856566373911e-12 5.2394053630560689e-12 0.0000000000000000e+00  -3.1222828583559099e-12 -5.0192434133069445e-12 0.0000000000000000e+00  -4.8022898781140281e-12 -1.3101720441184549e-11 0.0000000000000000e+00  -4.8650416722889929e-12 -1.6310684270078164e-11 0.0000000000000000e+00  -4.1183897866026658e-12 -1.4820312208007825e-11 0.0000000000000000e+00  -9.3150443263642494e-13 -3.5186135747570445e-12 0.0000000000000000e+00  3.5841240711658121e-13 4.1148203006166436e-12 0.0000000000000000e+00  7.0792187804033511e-13 1.0985518053111007e-11 0.0000000000000000e+00  5.1124704786812280e-13 1.4955197664685669e-11 0.0000000000000000e+00  -1.2730524448112173e-12 1.1519008939133733e-11 0.0000000000000000e+00  -6.3944312741379011e-13 4.4569849255178905e-12 0.0000000000000000e+00  6.5160110379139536e-13 -3.4823416896623229e-12 0.0000000000000000e+00  3.6271541151091889e-12 -1.5600241578055639e-11 0.0000000000000000e+00  5.8156521276205758e-12 -1.7053213965389935e-11 0.0000000000000000e+00  5.5354746499073302e-12 -1.4915291441268410e-11 0.0000000000000000e+00  2.2569966761730898e-13 -9.1882373264807750e-12 0.0000000000000000e+00  -2.3637012081042500e-12 3.0347598918568154e-12 0.0000000000000000e+00  -5.3514975315001344e-12 9.1856506099942604e-12 0.0000000000000000e+00  -8.7509751129992366e-12 1.2809786730919885e-11 0.0000000000000000e+00  -8.6453201052731328e-12 9.9194595185282249e-12 0.0000000000000000e+00  -3.2828995341362678e-12 3.9035297204543859e-12 0.0000000000000000e+00  4.0669578904779672e-12 -3.8030967431170511e-12 0.0000000000000000e+00  1.0357501859670925e-11 -8.8765576951423263e-12 0.0000000000000000e+00  1.3934536746780459e-11 -9.7575989794335925e-12 0.0000000000000000e+00  1.0934679969965652e-11 -1.0433441637106774e-11 0.0000000000000000e+00  5.6308009483629768e-12 -3.5802109796959947e-12 0.0000000000000000e+00  -2.9378528408571231e-12 1.2231006356253293e-12 0.0000000000000000e+00  -9.3958836339312070e-12 4.2498044994841116e-12 0.0000000000000000e+00  -1.3951178543954182e-11 4.6021839488000109e-12 0.0000000000000000e+00  -1.1288335823757842e-11 2.8416813752439190e-12 0.0000000000000000e+00  -4.6383417306569359e-12 1.0941794459320651e-12 0.0000000000000000e+00  5.5891641728044389e-12 -1.3289444506388417e-12 0.0000000000000000e+00  1.4415052833771099e-11 -4.5159825966320903e-14 0.0000000000000000e+00  1.9196477327829950e-11 -5.1385849141017013e-13 0.0000000000000000e+00  1.6356257489860178e-11 1.5495425738981661e-12 0.0000000000000000e+00  7.7297137540213773e-12 2.4343115827974468e-12 0.0000000000000000e+00  -1.7688749673741476e-12 -1.1393491432319467e-12 0.0000000000000000e+00  -1.1501848251094587e-11 -1.8173422722313894e-12 0.0000000000000000e+00  -1.5979861270874651e-11 -5.9308742385849849e-12 0.0000000000000000e+00  -1.4913950165454604e-11 -4.4179350483175627e-12 0.0000000000000000e+00  -1.0100180255263460e-11 -3.8500620637057537e-12 0.0000000000000000e+00  -1.8197349117959085e-12 -1.8860660537628955e-12 0.0000000000000000e+00  9.1641395740168845e-12 8.0153659872748656e-12 0.0000000000000000e+00  1.1025024263484695e-11 8.4567220996053576e-12 0.0000000000000000e+00  1.1803135349935012e-11 7.5094757031648604e-12 0.0000000000000000e+00  5.4753149359747004e-12 4.1046367113873159e-12 0.0000000000000000e+00  -2.0704696914274551e-12 -1.6453460953905106e-12 0.0000000000000000e+00  -8.0382943448078872e-12 -9.5155834578462828e-12 0.0000000000000000e+00  -9.9293371539824467e-12 -1.3030983020347992e-11 0.0000000000000000e+00  -1.0173681636356790e-11 -1.3348635554094727e-11 0.0000000000000000e+00  -9.5259941697887026e-12 -8.3056358606731819e-12 0.0000000000000000e+00  -1.1336399358949234e-12 -2.3946849764709518e-13 0.0000000000000000e+00  3.2538804461395821e-12 6.2910362426380817e-12 0.0000000000000000e+00  5.1791795649275646e-12 1.2670704941315154e-11 0.0000000000000000e+00  2.5382970898077193e-12 1.1891844881011149e-11 0.0000000000000000e+00  -6.9148828336563087e-13 5.7968570043926969e-12 0.0000000000000000e+00  2.8871029013895315e-12 -8.9087408189185152e-13 0.0000000000000000e+00  -1.5861383451489920e-12 -1.3460831422555000e-11 0.0000000000000000e+00  3.9439039482473561e-11 -2.9668082692464834e-10 0.0000000000000000e+00  1.9627083812197325e-10 -2.6169420157409089e-10 0.0000000000000000e+00  -1.2519521775019193e-10 -2.4614931510440567e-10 0.0000000000000000e+00  2.8375773392651235e-10 -1.1569950089992540e-10 0.0000000000000000e+00  -2.8434035997345538e-10 -5.1972282364380125e-11 0.0000000000000000e+00  -3.031