<?xml version="1.0"?>
<VTKFile type="UnstructuredGrid"  version="0.1"  >
<UnstructuredGrid>
<Piece  NumberOfPoints="2087" NumberOfCells="4026">
<Points>
<DataArray  type="Float64"  NumberOfComponents="3"  format="ascii">1.25057742337572 -0.3738452668956793 0  1.25057742337572 -0.4914023173541739 0  1.362380822250709 -0.527729443754442 0  1.431479122813215 -0.4326237921249266 0  1.362380822250709 -0.3375181404954113 0  0.7419976537719674 -1.073845266895679 0  0.7419976537719672 -1.191402317354174 0  0.8538010526469568 -1.227729443754442 0  0.922899353209462 -1.132623792124926 0  0.8538010526469568 -1.037518140495411 0  -0.08090169943749501 -1.341221474770752 0  -0.08090169943749502 -1.458778525229247 0  0.03090169943749447 -1.495105651629515 0  0.09999999999999974 -1.4 0  0.03090169943749449 -1.304894348370484 0  -0.9038010526469572 -1.073845266895679 0  -0.9038010526469573 -1.191402317354173 0  -0.7919976537719677 -1.227729443754442 0  -0.7228993532094625 -1.132623792124926 0  -0.7919976537719677 -1.037518140495411 0  -1.41238082225071 -0.3738452668956783 0  -1.41238082225071 -0.4914023173541729 0  -1.300577423375721 -0.527729443754441 0  -1.231479122813215 -0.4326237921249256 0  -1.300577423375721 -0.3375181404954103 0  -1.412380822250709 0.4914023173541738 0  -1.412380822250709 0.3738452668956792 0  -1.30057742337572 0.3375181404954111 0  -1.231479122813215 0.4326237921249265 0  -1.30057742337572 0.5277294437544419 0  -0.9038010526469569 1.191402317354174 0  -0.9038010526469569 1.073845266895679 0  -0.7919976537719674 1.037518140495411 0  -0.7228993532094622 1.132623792124926 0  -0.7919976537719674 1.227729443754442 0  -0.08090169943749466 1.458778525229247 0  -0.08090169943749467 1.341221474770753 0  0.03090169943749481 1.304894348370484 0  0.1000000000000001 1.4 0  0.03090169943749483 1.495105651629515 0  0.7419976537719677 1.191402317354174 0  0.7419976537719677 1.073845266895679 0  0.8538010526469572 1.037518140495411 0  0.9228993532094624 1.132623792124926 0  0.8538010526469572 1.227729443754442 0  1.25057742337572 0.4914023173541737 0  1.25057742337572 0.373845266895679 0  1.362380822250709 0.337518140495411 0  1.431479122813215 0.4326237921249264 0  1.362380822250709 0.5277294437544418 0  0.5663118960624632 -0.4114496766047314 0  0.5663118960624631 -0.529006727063226 0  0.6781152949374527 -0.5653338534634941 0  0.7472135954999579 -0.4702282018339787 0  0.6781152949374527 -0.3751225502044634 0  0.166311896062463 -0.7020666878068756 0  0.166311896062463 -0.8196237382653703 0  0.2781152949374525 -0.8559508646656383 0  0.3472135954999578 -0.760845213036123 0  0.2781152949374526 -0.6657395614066076 0  -0.3281152949374528 -0.7020666878068755 0  -0.3281152949374528 -0.8196237382653702 0  -0.2163118960624633 -0.8559508646656382 0  -0.147213595499958 -0.7608452130361228 0  -0.2163118960624633 -0.6657395614066075 0  -0.7281152949374528 -0.4114496766047311 0  -0.7281152949374528 -0.5290067270632257 0  -0.6163118960624633 -0.5653338534634939 0  -0.5472135954999581 -0.4702282018339785 0  -0.6163118960624633 -0.3751225502044631 0  -0.8809016994374947 0.05877852522924742 0  -0.8809016994374947 -0.05877852522924721 0  -0.7690983005625053 -0.09510565162951527 0  -0.7000000000000001 9.797174393178826e-17 0  -0.7690983005625053 0.09510565162951545 0  -0.7281152949374526 0.5290067270632259 0  -0.7281152949374528 0.4114496766047313 0  -0.6163118960624632 0.3751225502044633 0  -0.547213595499958 0.4702282018339786 0  -0.6163118960624632 0.565333853463494 0  -0.3281152949374526 0.8196237382653703 0  -0.3281152949374526 0.7020666878068756 0  -0.2163118960624631 0.6657395614066076 0  -0.1472135954999579 0.760845213036123 0  -0.2163118960624631 0.8559508646656383 0  0.1663118960624632 0.8196237382653702 0  0.1663118960624632 0.7020666878068755 0  0.2781152949374527 0.6657395614066075 0  0.347213595499958 0.7608452130361228 0  0.2781152949374527 0.8559508646656382 0  0.5663118960624633 0.5290067270632258 0  0.5663118960624633 0.4114496766047312 0  0.6781152949374528 0.3751225502044632 0  0.747213595499958 0.4702282018339785 0  0.6781152949374528 0.5653338534634939 0  0.7190983005625053 0.05877852522924733 0  0.7190983005625053 -0.05877852522924731 0  0.8309016994374948 -0.09510565162951537 0  0.9 0 0  0.8309016994374948 0.09510565162951536 0  -1.2 1.469576158976824e-16 0  -1.185226008714165 -0.1877213580482769 0  -1.141267819554185 -0.3708203932499363 0  -1.069207829026041 -0.544788599687456 0  -0.9708203932499371 -0.7053423027509677 0  -0.8485281374238572 -0.8485281374238569 0  -0.7053423027509679 -0.9708203932499367 0  -0.5447885996874563 -1.069207829026041 0  -0.370820393249937 -1.141267819554184 0  -0.1877213580482772 -1.185226008714165 0  -2.204364238465236e-16 -1.2 0  0.1877213580482768 -1.185226008714165 0  0.3708203932499367 -1.141267819554184 0  0.544788599687456 -1.069207829026041 0  0.7053423027509674 -0.9708203932499371 0  0.8485281374238568 -0.8485281374238572 0  0.9708203932499367 -0.705342302750968 0  1.069207829026041 -0.5447885996874563 0  1.141267819554184 -0.3708203932499372 0  1.185226008714165 -0.1877213580482773 0  1.2 0 0  1.185226008714165 0.187721358048277 0  1.141267819554184 0.3708203932499369 0  1.069207829026041 0.5447885996874561 0  0.9708203932499369 0.7053423027509678 0  0.848528137423857 0.8485281374238569 0  0.7053423027509678 0.9708203932499369 0  0.5447885996874562 1.069207829026041 0  0.3708203932499369 1.141267819554184 0  0.1877213580482771 1.185226008714165 0  7.347880794884119e-17 1.2 0  -0.1877213580482767 1.185226008714165 0  -0.3708203932499368 1.141267819554184 0  -0.544788599687456 1.069207829026041 0  -0.7053423027509677 0.9708203932499369 0  -0.8485281374238569 0.848528137423857 0  -0.9708203932499367 0.7053423027509679 0  -1.069207829026041 0.5447885996874562 0  -1.141267819554184 0.370820393249937 0  -1.185226008714165 0.1877213580482772 0  -0.9829730996839018 -0.1837495178165701 0  -1 1.224646799147353e-16 0  -0.9829730996839018 0.1837495178165704 0  -0.9324722294043557 0.3612416661871533 0  -0.850217135729614 0.5264321628773561 0  -0.7390089172206593 0.6736956436465571 0  -0.6026346363792563 0.7980172272802396 0  -0.4457383557765378 0.8951632913550626 0  -0.2736629900720829 0.961825643172819 0  -0.09226835946330189 0.9957341762950346 0  0.09226835946330202 0.9957341762950345 0  0.273662990072083 0.961825643172819 0  0.4457383557765383 0.8951632913550623 0  0.6026346363792564 0.7980172272802395 0  0.7390089172206591 0.6736956436465572 0  0.8502171357296142 0.5264321628773557 0  0.9324722294043558 0.3612416661871529 0  0.9829730996839018 0.1837495178165703 0  1 0 0  0.9829730996839018 -0.1837495178165701 0  0.9324722294043558 -0.361241666187153 0  0.8502171357296139 -0.5264321628773562 0  0.7390089172206585 -0.6736956436465578 0  0.6026346363792562 -0.7980172272802397 0  0.4457383557765377 -0.8951632913550626 0  0.2736629900720828 -0.961825643172819 0  0.09226835946330243 -0.9957341762950345 0  -0.09226835946330192 -0.9957341762950346 0  -0.2736629900720831 -0.961825643172819 0  -0.4457383557765389 -0.895163291355062 0  -0.6026346363792572 -0.7980172272802389 0  -0.7390089172206591 -0.6736956436465572 0  -0.8502171357296141 -0.5264321628773558 0  -0.9324722294043559 -0.3612416661871527 0  -2.998548846875964 0.09329958680951025 0  -2.998548846875964 -0.09329958680950952 0  -2.986948043907056 -0.2795378024522158 0  -2.96379131922227 -0.4646945406422534 0  -2.929168261690821 -0.6480534659294495 0  -2.883212821196174 -0.8289051982524908 0  -2.826102790409967 -1.006550057392575 0  -2.758059116946709 -1.180300769900256 0  -2.679345048560375 -1.349485128022907 0  -2.590265114689991 -1.513448590345919 0  -2.491163948294393 -1.671556814086285 0  -2.38242495253426 -1.823198109241595 0  -2.264468817459772 -1.967785805099819 0  -2.137751892442521 -2.10476051995433 0  -2.002764420648462 -2.233592325243045 0  -1.860028642382326 -2.353782795739098 0  -1.710096774641347 -2.464866937861203 0  -1.553548874694977 -2.566414988643491 0  -1.390990595955982 -2.658034078404945 0  -1.223050844825068 -2.739369750685856 0  -1.050379347574173 -2.810107333571024 0  -0.873644136681756 -2.869973157094259 0  -0.6935289663449103 -2.918735612014312 0  -0.5107306671671963 -2.956206045866044 0  -0.3259564502564232 -2.982239492820158 0  -0.1399211711622538 -2.996735234527832 0  0.04665543576105231 -2.999637189780449 0  0.2330515418670193 -2.990934131476888 0  0.4185460168317681 -2.970659730059008 0  0.6024212185671552 -2.938892423247245 0  0.7839657696385802 -2.895755112580307 0  0.9624773094461021 -2.841414687933001 0  1.137265211521135 -2.776081381851726 0  1.307653255426114 -2.70000795620559 0  1.472982242919966 -2.613488724299851 0  1.632612548268082 -2.516858412234904 0  1.785926592829997 -2.410490863916028 0  1.932331234351193 -2.294797594723943 0  2.071260061715239 -2.170226199441751 0  2.202175586278381 -2.037258620597657 0  2.324571321308669 -1.89640928392298 0  2.43797374148475 -1.748223108138904 0  2.541944114873332 -1.593273396771826 0  2.636080200297805 -1.432159620153384 0  2.720017803531218 -1.265505096186186 0  2.793432186292979 -1.093954578847967 0  2.856039322598189 -0.9181717637636621 0  2.907596997598998 -0.7388367204960059 0  2.947905744666791 -0.5566432614884806 0  2.976809617089829 -0.372296257839778 0  2.994196791400783 -0.1865089122944406 0  3 0 0  2.994196791400783 0.1865089122944416 0  2.976809617089829 0.372296257839778 0  2.947905744666791 0.5566432614884798 0  2.907596997598998 0.738836720496004 0  2.85603932259819 0.9181717637636619 0  2.793432186292979 1.093954578847966 0  2.720017803531218 1.265505096186187 0  2.636080200297807 1.432159620153381 0  2.541944114873333 1.593273396771825 0  2.437973741484751 1.748223108138903 0  2.32457132130867 1.896409283922979 0  2.20217558627838 2.037258620597658 0  2.07126006171524 2.170226199441749 0  1.932331234351194 2.294797594723943 0  1.785926592829998 2.410490863916027 0  1.632612548268082 2.516858412234904 0  1.472982242919967 2.6134887242
[...]
<PointData  Scalars="f_434"> 
<DataArray  type="Float64"  Name="f_434"  format="ascii">1.0923365831148832e-11  -6.7120373031527398e-10  -2.7664138847161141e-09  -3.3364747153109059e-09  -1.8278978106498526e-09  -3.5534507315572793e-11  -1.7995897849697107e-09  -3.2365079905061911e-09  -2.7330332681713530e-09  -6.9969870183344177e-10  -7.4817920623137453e-10  -2.8462490335672952e-09  -3.2776054465665396e-09  -1.8773592526353693e-09  -6.7730916899173534e-11  -1.7779066947257342e-09  -3.3113550081457460e-09  -2.7857849149952536e-09  -6.8228407349092809e-10  -1.5456178404803708e-11  -2.7580117615163814e-09  -3.2720712595299845e-09  -1.7394729363546929e-09  1.4084250477407517e-11  -6.5181597475344113e-10  -3.2091809905264979e-09  -2.7486211780981019e-09  -7.4657100115953790e-10  -1.1666506360088204e-11  -1.8098426796937093e-09  -3.2791230117718351e-09  -1.8143081963262851e-09  -8.1054567367084720e-12  -7.5921537225823165e-10  -2.7631769857387166e-09  -2.7707272429580075e-09  -7.1229654875834953e-10  -1.5612198305899760e-11  -1.8764523269921450e-09  -3.3021199356421957e-09  -1.8575538847727870e-09  2.9625709806625016e-11  -7.2220590748006489e-10  -2.7618422247137599e-09  -3.2259082962008917e-09  -7.3130934723995941e-10  -1.7904537225152438e-12  -1.8570260727588287e-09  -3.3085451156902996e-09  -2.7687149969735616e-09  8.8374448108883523e-08  8.6911325818488537e-08  8.3744683114087332e-08  8.3801127208727799e-08  8.6804733688799582e-08  8.8042722402041939e-08  8.5218913514088084e-08  8.3365795380808680e-08  8.5182043990633168e-08  8.8127976186518573e-08  8.6803136878976787e-08  8.3852134841401513e-08  8.3811756457507758e-08  8.6823744083794953e-08  8.8412228459205285e-08  8.5167693769892502e-08  8.3185186356140204e-08  8.5161600565865056e-08  8.8012827122234401e-08  8.7984432382771774e-08  8.3703380195436673e-08  8.3695035579584085e-08  8.6782506568218340e-08  8.8390044846500018e-08  8.6835546404308590e-08  8.3374749731606662e-08  8.5218572221645361e-08  8.8018582550477535e-08  8.8036910791914674e-08  8.5181056826503719e-08  8.3828049860277929e-08  8.6866510979471527e-08  8.8392564897621867e-08  8.6869411533455134e-08  8.3820540428908307e-08  8.5196751994562014e-08  8.7995174587858664e-08  8.8017420778606769e-08  8.5160371978532641e-08  8.3259110505668340e-08  8.6880858421732156e-08  8.8399290879391422e-08  8.6838124535235818e-08  8.3831451513704664e-08  8.3814215103009064e-08  8.7992678945751443e-08  8.8032005209872896e-08  8.5163898508389143e-08  8.3365382338047807e-08  8.5175988260247290e-08  8.8883940478499911e-09  7.4923556229772140e-09  5.2599706918077598e-09  7.3906173512220504e-09  8.8148370690464491e-09  7.4054707183869581e-09  5.2366792127773285e-09  7.5060333666722978e-09  8.8748331785916921e-09  7.5230666117843280e-09  5.2086259235921700e-09  7.4633704850625006e-09  8.8555526055506827e-09  7.3761728169037773e-09  5.2163728484741735e-09  7.5305919674926245e-09  8.8240864906472868e-09  7.5324329263558850e-09  5.2024683122318254e-09  7.4577492443687148e-09  8.8967556543539041e-09  7.4610050912229964e-09  5.2610383897313391e-09  7.3461463444503795e-09  8.8368642405035982e-09  7.4459895507102513e-09  5.2542341255800563e-09  7.4770668416379819e-09  8.8306000276850433e-09  7.4431753509044588e-09  5.1987235751669043e-09  7.5138936277609998e-09  8.8674913450652832e-09  7.4782814529492219e-09  5.2163643797277956e-09  7.4573521018203283e-09  8.9056842757895310e-09  7.3793766395440669e-09  5.2865083910417863e-09  7.3966081950872403e-09  7.6083026546159349e-08  7.7611569758211741e-08  7.6218532541265169e-08  7.5526204768764571e-08  7.6977407967407217e-08  7.6681169920350188e-08  7.5366123977383613e-08  7.6401935083775027e-08  7.7229177863971875e-08  7.5731595418456874e-08  7.5705856542287483e-08  7.7558071154965291e-08  7.6398253640548243e-08  7.5424860771200414e-08  7.6834706121488088e-08  7.7096531207605219e-08  7.5540139987628295e-08  7.5993521208258199e-08  7.7452244706565989e-08  7.5979359217574574e-08  7.5542260651248421e-08  7.7192077221779598e-08  7.6906328939926838e-08  7.5472245939080062e-08  7.6252574341634703e-08  7.7324099230770209e-08  7.5633628743630369e-08  7.5714169616640796e-08  7.7242514074138222e-08  7.6382903606525521e-08  7.5528508815187330e-08  7.6788648805939972e-08  7.7216921210988946e-08  7.5519612697712116e-08  0.0000000000000000e+00  0.0000000000000000e+00  0.0000000000000000e+00  0.0000000000000000e+00  0.0000000000000000e+00  0.0000000000000000e+00  0.0000000000000000e+00  0.0000000000000000e+00  0.0000000000000000e+00  0.0000000000000000e+00  0.0000000000000000e+00  0.0000000000000000e+00  0.0000000000000000e+00  0.0000000000000000e+00  0.0000000000000000e+00  0.0000000000000000e+00  0.0000000000000000e+00  0.0000000000000000e+00  0.0000000000000000e+00  0.0000000000000000e+00  0.0000000000000000e+00  0.0000000000000000e+00  0.0000000000000000e+00  0.0000000000000000e+00  0.0000000000000000e+00  0.0000000000000000e+00  0.0000000000000000e+00  0.0000000000000000e+00  0.0000000000000000e+00  0.0000000000000000e+00  0.0000000000000000e+00  0.0000000000000000e+00  0.0000000000000000e+00  0.0000000000000000e+00  0.0000000000000000e+00  0.0000000000000000e+00  0.0000000000000000e+00  0.0000000000000000e+00  0.0000000000000000e+00  0.0000000000000000e+00  0.0000000000000000e+00  0.0000000000000000e+00  0.0000000000000000e+00  0.0000000000000000e+00  0.0000000000000000e+00  0.0000000000000000e+00  0.0000000000000000e+00  0.0000000000000000e+00  0.0000000000000000e+00  0.0000000000000000e+00  0.0000000000000000e+00  0.0000000000000000e+00  0.0000000000000000e+00  0.0000000000000000e+00  0.0000000000000000e+00  0.0000000000000000e+00  0.0000000000000000e+00  0.0000000000000000e+00  0.0000000000000000e+00  0.0000000000000000e+00  0.0000000000000000e+00  0.0000000000000000e+00  0.0000000000000000e+00  0.0000000000000000e+00  0.0000000000000000e+00  0.0000000000000000e+00  0.0000000000000000e+00  0.0000000000000000e+00  0.0000000000000000e+00  0.0000000000000000e+00  0.0000000000000000e+00  0.0000000000000000e+00  0.0000000000000000e+00  0.0000000000000000e+00  0.0000000000000000e+00  0.0000000000000000e+00  0.0000000000000000e+00  0.0000000000000000e+00  0.0000000000000000e+00  0.0000000000000000e+00  0.0000000000000000e+00  0.0000000000000000e+00  0.0000000000000000e+00  0.0000000000000000e+00  0.0000000000000000e+00  0.0000000000000000e+00  0.0000000000000000e+00  0.0000000000000000e+00  0.0000000000000000e+00  0.0000000000000000e+00  0.0000000000000000e+00  0.0000000000000000e+00  0.0000000000000000e+00  0.0000000000000000e+00  0.0000000000000000e+00  0.0000000000000000e+00  0.0000000000000000e+00  0.0000000000000000e+00  0.0000000000000000e+00  0.0000000000000000e+00  0.0000000000000000e+00  6.5129048797506185e-11  6.1248826211699109e-11  6.4745050536801348e-11  6.1315867396100154e-11  6.1893710954577066e-11  6.2228686259342156e-11  6.4710765854918639e-11  6.3229026596953195e-11  5.9464554543095318e-11  5.4091846743527382e-11  -4.1155670695696575e-11  -4.0359923001297359e-11  -5.5876739070785570e-11  -3.3138003051460675e-11  -3.6811076136362353e-11  -6.4781492285614547e-11  8.7059144448377716e-08  -6.4562926813639217e-11  -3.4071776208672778e-11  -3.2530987089189338e-11  -3.1845123980663466e-11  2.5682403394737274e-12  4.1738249242497533e-12  -8.0765229948792759e-12  6.2588625216351475e-13  2.7137584580309619e-12  3.4429408750323731e-12  5.1977159962580654e-12  3.9670196486249193e-12  5.3810791738740596e-12  -5.5073710745893517e-12  3.7513662025600418e-12  3.0927554476273783e-12  2.8683952003011485e-12  3.9279498528278546e-12  9.3694749597566407e-13  5.9429614851560165e-12  2.3037257528064904e-12  3.6642944043616136e-10  -2.3685514332987094e-14  4.7290231236335824e-13  2.3247491321406286e-12  6.6088802689629643e-10  -1.3635406116619497e-10  3.6471887390496069e-10  7.1903329203313718e-10  -4.5348450894668470e-11  -1.1110494455644956e-10  3.5710620765740785e-10  3.9013923979618583e-10  -4.4016283055840585e-11  -4.6186444871342667e-11  6.6371063785813661e-10  -1.4916185531100305e-10  7.4822882097633961e-10  -1.1921180004087697e-10  -7.3582720803119647e-11  -2.4046094892237541e-11  4.5599033841510837e-12  -6.3913124840929242e-11  5.3773264874850849e-10  1.0144210685362350e-11  8.2593753921625401e-12  -6.2635522350433945e-11  -8.9121954599820769e-12  -2.6030981641629658e-11  -1.4300374458917538e-10  -1.2196039840248812e-10  1.0406581166851859e-09  -8.1005310952881412e-12  1.0982028319236365e-11  -7.3923893878656686e-12  -8.6436260735416876e-12  9.0822594215341688e-12  -1.1908335043281592e-11  -1.9825063596612852e-11  8.7053850903768000e-08  8.7068343128540753e-08  8.7057601480260448e-08  8.7051783357012500e-08  8.7052858054880542e-08  1.2448926334821755e-11  4.1474399506810110e-11  -6.4335448144840715e-12  -1.3445861946553681e-11  -6.4614951557797104e-12  1.2510524996472094e-11  -6.0244906122812086e-12  1.3049736410124803e-11  -1.3114621145649449e-11  -5.8156992622883588e-12  -2.8438287319207972e-10  2.2793324597192865e-12  -8.7220495712559525e-12  8.3555587954543123e-12  -5.8594580170935914e-12  6.9092503008122328e-12  1.2373476948604503e-11  8.5628991422726117e-12  -1.8591578791192847e-11  -6.8741269142930547e-12  -3.8568139769194487e-12  1.6396214447177453e-11  -1.4552100689478122e-11  -6.6059755473996878e-12  -6.3883299297094475e-12  1.6145470631567516e-11  -3.1044531141417392e-10  -4.6998996578170692e-12  -8.7100908266853124e-12  -3.0579528259562523e-10  -8.2541081766090501e-12  -3.0164720543620537e-10  -3.5106971331462093e-10  9.3748840695907365e-12  -8.8076368656949048e-12  7.5684920504019207e-12  7.7486506432718491e-10  1.8189304673060680e-09  1.8644486720171314e-09  8.5383109866723365e-10  -5.0036397488703562e-12  -4.1841091664093794e-10  -8.9348378775685318e-12  -1.2843948861839200e-11  8.7018408635470431e-08  8.7032828272646003e-08  8.7046179611256335e-08  8.7024499173537062e-08  8.7021128481247417e-08  -1.1305611374534690e-10  2.2662948942539622e-10  4.3585244573195625e-12  -3.1225048259939860e-12  -1.9963641208049218e-12  3.5494347019916688e-12  1.8276506369000589e-09  3.3617064014801870e-12  1.4989223200693954e-10  2.2742035413341002e-12  3.8021066579071151e-12  -2.3787330481378129e-12  1.3755785713666279e-10  -2.2079966373399542e-12  5.2888979738411974e-12  3.5254002590518229e-12  -3.1209292141162375e-12  1.9374422145452524e-09  -4.4092579801478048e-13  -5.3341559300883975e-12  3.9249046281174000e-12  2.0829835637918794e-09  -4.4329482399125181e-12  8.8826382615413140e-13  4.3827054398046142e-12  3.8934379576865682e-12  5.9955065499431340e-12  -7.5698724650389450e-12  -3.7792029570121667e-12  1.0431914128925044e-11  -3.2427965566799155e-12  -1.8672962397866861e-12  3.6008757884173674e-12  4.4236866312485375e-12  -1.1691888541922292e-12  -1.1774827261288090e-12  -3.5290324134288068e-12  3.6811426455155314e-10  4.0388179503096862e-12  -1.3138615225564837e-11  4.3461855560001174e-11  2.3655228876712419e-09  7.6013139059762081e-11  -1.0980758332123483e-10  6.9175553258465997e-11  -1.0093613413625931e-11  -1.1657806821878599e-10  -6.8117571102631497e-12  2.8411237263689549e-11  -1.4256941892743936e-11  2.2550167675572370e-09  -3.9010159300804046e-10  -1.3744438194882344e-12  -1.8312274480892235e-11  2.0743430562907800e-11  1.4851751932535159e-13  2.2655649703033448e-11  -1.5099060336320885e-11  -1.0589353285818791e-10  2.2266935252665910e-11  1.7307670176703720e-11  3.4499501529428949e-12  -1.8699348134087133e-11  -1.6004074110439670e-12  1.5329284875287018e-10  1.6312044506198043e-10  -1.0564470695921261e-11  -1.1320811652039478e-11  1.7498224855556895e-11  -1.2402283290235306e-11  2.5081235895372058e-11  -1.0382128580909689e-10  2.4036118369824630e-09  3.1783805997520203e-12  3.0646568468683594e-12  2.2865397495622033e-09  1.8265755087544040e-11  4.2681018627745126e-11  -2.0165294684622518e-12  2.3019086960301493e-09  8.8049822115788092e-11  2.2991983012290770e-09  3.7431136460391840e-11  -1.3801572413374187e-11  2.3255478461973651e-11  2.1369749294940880e-11  -1.4088330786453605e-11  2.0908191335480150e-11  -1.4579487449771901e-11  -1.0837934296887868e-11  2.2268070034350970e-09  2.2971908032675678e-11  2.5290385645764876e-09  1.8915654726891562e-10  1.8615865600308903e-10  -2.7138365914819590e-11  1.9037866441373328e-11  -5.5361763450961104e-14  2.3658963658784235e-11  1.8293575473828127e-12  2.8563150678966440e-09  -2.3862854961850303e-11  1.8395509296900496e-10  -1.8915910121827168e-10  2.0029021176580014e-11  -9.6140178400885569e-14  2.3136030926374599e-11  3.4358078346577893e-12  1.3615223223639669e-09  -5.4585751933625345e-10  -1.1553298427107341e-10  9.2686583120921595e-11  1.0254742352913676e-10  -7.6274706808385768e-12  1.6057060311404658e-13  2.2323399708609611e-11  9.1299731137920842e-11  -6.3712663578836667e-11  2.0205128954172529e-10  -1.6763044907435579e-14  8.7502847966658583e-11  -4.0666723318808262e-10  -5.5041261615168980e-10  -1.8983648810938838e-11  -2.1658113719839192e-10  4.2684212176697879e-12  2.1889924601075716e-11  2.3924976231571135e-11  6.1128350310447609e-11  1.4847411867208827e-11  2.4094018044801724e-11  2.2833813879798755e-11  -5.7095323585686411e-10  1.4230632003576764e-10  -1.4355949662062242e-11  5.4503375318022042e-11  -4.1460998701869315e-12  -2.6730540388197124e-11  1.0890556127866571e-10  -8.3895420149210272e-11  1.3484343153953566e-10  -1.4327987029613005e-10  -6.5335141487356539e-11  3.0087827646684708e-09  8.7065092671984598e-08  8.7054860878722795e-08  8.7056200020875742e-08  8.7059882845363269e-08  8.7060686629876093e-08  4.5540336542739895e-11  3.1512358189434992e-09  -3.0761956609637847e-10  -1.6022599082707248e-10  1.1088759363038119e-10  -3.2757653686925609e-12  6.0312888998797347e-11  4.6461112979837600e-10  -4.6294686159036413e-11  1.2866692507120702e-10  -1.5139755817903287e-11  -3.2598083721163929e-12  -1.2967544300486940e-10  -4.2796493027257734e-10  2.8870097080521671e-12  2.9293268566245931e-09  2.1496202241033767e-09  3.6480074368994803e-12  3.3244499880210934e-09  -1.2766647941640550e-11  2.5262981550600445e-11  2.9342832309901529e-11  -1.7170706596329817e-11  1.2338379899776612e-11  2.0714297205235945e-11  -3.1856851140436930e-12  -1.6794495755160709e-11  3.2524125033736633e-10  3.4398118839334324e-11  5.3716388733508430e-11  -4.5375162934510404e-12  2.4487120351572791e-11  6.1187767309970126e-13  -8.0838203630296634e-10  1.2651323145033085e-11  -9.1723170449203248e-12  -8.2554101272324461e-10  -5.4436542983828900e-11  2.0781461674924604e-10  1.0606926416894326e-12  -8.0781104342389971e-10  -6.7971564281484596e-11  -1.8111960003411395e-10  -3.1394083239806514e-12  3.3330398682148321e-11  -1.2793162737974815e-12  2.5204199740520639e-10  3.4685487081538770e-12  8.6895147732053124e-08  8.6851180347389539e-08  8.6884800664843495e-08  8.6878296809441407e-08  8.6920543788582576e-08  3.6948877602010770e-12  3.3199583986834324e-12  1.1531262068580439e-11  6.5256561230119559e-12  -6.0013485064274551e-12  2.0486422041159464e-10  3.1729756170048110e-12  -3.7049920630182001e-11  -1.7944103704178989e-10  -1.8070450108632782e-12  -1.7560170528878741e-12  2.8601052627521202e-10  -3.2210278992225569e-12  1.2395441100674635e-13  -2.3851778773240234e-12  5.2831327073476269e-13  -1.8298724325301524e-11  -2.7634583786135020e-12  -8.0961694633394907e-10  -3.9510140685580873e-11  1.2242188236378136e-11  4.4248792074743629e-11  -6.6397028120622387e-11  -2.3518207390056041e-11  -9.4727945062619332e-12  2.8414266148143636e-11  -1.0205443497130479e-10  1.8473882333362599e-11  2.3826642373960530e-10  -4.6369005912334157e-11  3.2183535285700832e-12  2.2304210701500219e-11  8.7143197013954988e-08  -1.2851359776559031e-12  3.1344045979596717e-12  -5.8526580305873802e-10  -2.6819800342614052e-12  -3.0964721258448463e-12  -3.2360356100800992e-12  -4.4953827715928465e-13  -6.1933943903277281e-11  1.6350272280090001e-11  -3.2415169942370104e-12  -6.2595704399303318e-12  -1.8556013970455317e-11  -1.4532736670868299e-11  -2.3394049711430357e-12  -2.6720430648244265e-12  -8.7935217990055848e-10  5.5680977853795774e-12  8.7148293979478511e-08  1.9006037915015074e-11  9.2536185047515131e-12  7.0839986422865530e-12  8.7130388996429804e-08  8.7143457769678886e-08  8.7120948227790016e-08  2.8590327320570475e-12  -1.7801612983926317e-12  -1.4109988387296005e-11  1.2460289116538268e-10  9.2809223161786222e-12  -4.9802633515259528e-11  -9.0994038873633003e-12  9.3064960928246361e-12  -1.3903142694652760e-11  -2.5786368915740207e-12  -2.4575676346243351e-12  4.4661927639958018e-12  6.9556631791302995e-12  2.5417795731125938e-12  -2.3081349145522821e-11  8.8901448449774667e-12  2.2339919251302026e-10  -1.0480830347348915e-11  -8.7617802059873602e-12  -6.2169193082339561e-10  3.5633630061245506e-13  8.7710311954537476e-10  -4.3644519568494580e-11  -7.8959225808945225e-11  1.0542462067083627e-11  9.0852675943150732e-12  2.6893662535229578e-11  7.8235488081229752e-12  2.8354444196275629e-12  -3.9130967730479290e-12  1.6237703011218143e-12  1.1582250316770016e-11  8.7550962111977834e-12  -2.8267966963104513e-11  -1.3363939989590563e-11  -3.8387114187253495e-12  2.7324217557225275e-10  2.5722005350546697e-12  -4.6372261895613751e-12  -7.9164530464356331e-12  -6.9251302788026957e-11  5.6107148287174676e-13  -3.2358027652346759e-11  4.2514473308533991e-14  -3.8594638350346211e-11  5.0301610391402893e-12  4.1149540484160937e-10  1.8837047630657021e-11  1.7107812915969243e-10  1.1701938829207921e-12  4.6285995167124118e-11  3.1237981683388925e-09  4.2048811678769335e-09  2.3282740411413396e-14  4.7542034345820080e-11  4.8624278978994798e-12  2.8529774533622862e-11  -3.6298863443220702e-12  5.0372775145600062e-11  3.9386340464554419e-12  -5.2843471565317907e-13  1.1683003913953419e-12  -6.8221699661468759e-12  2.0528404647430786e-12  -1.6219567758950967e-10  2.2021244191963660e-12  -5.1428473158487218e-11  2.8409702937046959e-11  1.4533455038829714e-11  2.7487639669353505e-12  1.6027262422719451e-11  4.2923708909721645e-09  -4.7400084578080231e-10  -2.2902080357583266e-11  5.6922062288944026e-12  -4.1607021783406678e-11  -2.7649246529713314e-11  -8.9558701144765698e-10  -1.5528147217972191e-12  -1.3590311815394300e-11  -5.8326501883801329e-11  -1.4602386637119511e-12  -3.1027678718789443e-12  8.7115505687254199e-08  9.8132058801499893e-13  5.6327508114040562e-12  -2.3901262593428178e-10  -7.0471285663554917e-12  8.7108861389284605e-08  8.7114825678937151e-08  8.7087860744862867e-08  8.7104507578859507e-08  8.7723640336165461e-12  2.5010486942905791e-12  2.0932099751409132e-12  6.1021287644915998e-12  1.6653499701287872e-12  -1.5390804211639327e-13  -5.6305056497224182e-12  3.7197210324710767e-12  -3.9131389220187749e-11  1.3072588654590550e-11  3.1808722349970078e-11  1.2883364228718758e-11  8.2740814347011089e-10  2.1799469379744964e-12  -2.7011454527685730e-12  4.7553470319307975e-11  -4.4420265301831819e-11  6.3922693311812293e-13  -3.9716379279421294e-12  1.8598142920583500e-12  -2.8688346221697828e-11  1.9444611423456312e-10  3.1097309484875664e-10  -8.5397970965931270e-12  -1.6702758757360139e-11  5.2924845537566962e-11  1.1428887673765813e-09  -8.3508615015582229e-10  8.5139792060679051e-08  8.4640635035136035e-08  8.6439955184756872e-08  8.4735334351386276e-08  8.4611061989665274e-08  8.4683712683058135e-08  8.4775956582439207e-08  8.6474269750713198e-08  8.4704564646129328e-08  8.4739300764050537e-08  8.3051211937495608e-08  8.2632459904918324e-08  4.1849803128710666e-13  5.1710076667758442e-10  4.5024700583700757e-09  3.0787462048399966e-11  1.2067803795159364e-11  1.0234034122765245e-11  -7.4242975768795308e-12  -8.6532544408168686e-11  -3.4433056870650045e-10  -6.8939888227655924e-12  2.1705681483997854e-12  -4.3615683038382931e-12  -2.3418314139059001e-11  2.9002242678371672e-12  7.9145494250330647e-12  2.0604435414999725e-12  1.7717113605208883e-12  -4.0069823894195422e-12  8.4521379853273916e-12  2.1240164837567365e-13  1.1341973939804015e-11  -4.6867938885286077e-11  4.2403