<?xml version="1.0"?>
<VTKFile type="UnstructuredGrid"  version="0.1"  >
<UnstructuredGrid>
<Piece  NumberOfPoints="177" NumberOfCells="626">
<Points>
<DataArray  type="Float64"  NumberOfComponents="3"  format="ascii">2.449293598294707e-15 0 -40  2.449293598294707e-15 0 40  6.123233995736766e-16 0 -10  6.123233995736766e-16 0 10  13.68080573302674 0 -37.58770483143634  25.71150438746157 0 -30.64177772475912  34.64101615137754 0 -20  39.39231012048832 0 -6.945927106677217  39.39231012048832 0 6.945927106677217  34.64101615137755 0 19.99999999999999  25.71150438746158 0 30.64177772475911  13.68080573302675 0 37.58770483143633  7.071067811865476 0 -7.071067811865475  10 0 0  7.071067811865476 0 7.071067811865475  19.88364730094672 24.78683072728187 -24.2951351613575  17.98270184681063 12.5102692981844 -33.46812806799355  28.99116041356069 12.69635192714123 -24.46048375681415  7.237621988488849 21.58154141153451 -32.89154751990188  -39.36214962262878 5.202794470683735 4.853051285697258  -35.5189953359923 -1.506959493679601 18.33384966138226  -37.81346799402737 -11.04047124606128 6.946195572366354  20.87822220865791 -22.98116080156483 -25.21836802052274  25.59760841452864 -10.33019241321131 -28.94908579148026  12.28492031124684 -14.24815826552631 -35.29972689677399  -12.24861777395123 -25.46610373699905 -28.30987324387111  -19.54435156758539 -31.82602304537978 -14.32210106505247  -3.671376879029347 -34.57808892320583 -19.7706033856076  -17.77170531789416 8.348073085964913 -34.84933522816928  -6.534493472484981 2.76966405082319 -39.36533190643296  -5.153845176600543 15.73721991398785 -36.41123163632913  5.554015899200271 10.36808145667925 -38.2316072680589  -2.71336125059527 -13.20044184426797 -37.66146579515815  3.609455226854242 -25.77332375789665 -30.37610270321021  -23.99661039875652 30.73551300752781 -8.915768589099844  -35.01551633224629 18.32161834039321 -6.183196372036132  -27.7524491823175 23.01559838521607 -17.32292687028738  -34.2527566821574 11.06813150944455 -17.44262378664867  -7.892667966402965 -28.68217513455986 26.74020609349435  6.204345380336262 -33.30581856094935 21.26566595210744  -6.870870045559988 -36.26667073670627 15.41167539537346  5.895403296768752 -38.71674219939803 8.139907458552559  -15.69695417297848 -4.000629662057642 -36.573222335453  -38.73224107680769 5.890902788242646 -8.069124209449596  -36.79831235280015 -0.3112302343094218 -15.67760644125905  6.549778458285209 32.17410594734563 -22.84572845492919  37.2941721924684 -9.047724270793355 11.28199477035039  38.2202382960584 -11.79846234238581 -0.09834097729102781  33.45964462971772 -20.06809041281489 8.816117537560919  -28.23724784502398 -1.475488093660826 -28.29276884690068  -35.10301981075938 -10.33540665569553 -16.15417498440695  -26.92779384545655 -19.43402000588806 -22.29826865537625  35.37870075326788 11.10355115457036 -15.00195603141677  37.09980606790693 14.91459734145121 -1.076650298877417  29.39086495135524 22.89078322704729 -14.5667120745736  19.07220510099907 32.64629518728071 -13.05643148530093  16.85555635183622 14.91815945293123 33.06567311589153  -18.5588067624665 -13.92565399967998 -32.58292270860036  4.709037372926321 33.12157728796791 21.92683481439015  -7.276447138605693 36.94195327967204 13.50353305330147  5.628857545908421 38.12029185667203 10.73123066055397  -4.706290316863552 27.5256261806974 -28.63897230722328  -11.57435162439104 30.18989540151367 23.55004458850599  26.31927260185512 -29.43090800637617 6.41229628366162  31.36234176753829 -24.68208136076741 -2.682979417845297  18.46271884664508 -35.38243864844116 -2.685339471842178  -1.589717019906482 39.9634207790271 0.6307134333794873  -21.94211839843747 -27.90658727048163 18.43273791665104  -19.38783795087605 -15.49421006966028 31.36943088275285  -28.39550706379261 -3.75404188077822 27.9213600698008  -19.46029063331866 2.229971306707804 34.87584144415773  16.18354962403354 -33.92105329756571 13.69141573213485  3.95573239527704 -39.53106007506254 -4.652684231575572  12.20297257281187 -33.40276900614205 -18.31235875329876  25.33738549230237 -27.96283006454366 -13.27015565831533  34.24703245759387 -14.21840125598397 -14.99926110087912  -10.61943580316682 37.37170090126291 -9.517539333722961  -16.58413267416351 30.55427268400329 -19.78390669704325  -5.138665752805475 34.67803809394554 -19.26208161741109  28.91117908897597 13.99959756455797 23.83600200779445  25.25619170295996 -25.10916073886747 18.21139279827473  -22.13788052563738 31.07624962165663 12.00753743633937  -10.99466661357387 -38.20246169281176 -4.437254406230776  19.93134369032896 26.31051523568704 22.59421002670074  30.77725549521458 23.23085712018617 10.63427579310312  18.82149389896602 33.44077007199025 11.29009585448531  -30.63342835654954 -15.2806414567032 20.6904582790191  27.05486437240869 29.3969047746 -1.963747301378425  -2.855364429377 -17.76526626216052 35.72453230778522  10.72468899314744 -26.00867195371562 28.43466245982653  3.233056604964661 -7.854995531268879 39.08767568163705  13.1632718768092 -12.88631212998264 35.50593236609717  -24.8129551011487 17.08472858007059 -26.31405154083457  -32.47004299928874 -21.88259711298566 8.176077984895484  -39.11691825725016 -6.406770543482292 -5.368425957277976  22.47196772012414 -16.35721061105511 28.76547110358676  -33.19424603112175 -21.44981724346117 -6.16825507315268  31.47985892518635 -12.97443378302567 20.9924403074118  -15.36231329184293 20.03066868270535 -31.02856172056566  -26.84416026918226 21.69371976811911 20.21814981804159  -34.89949657429278 11.09258216001103 16.09284809734844  -33.33842082421543 20.54152561398452 8.160601840399833  -28.77591242580136 8.512398414566563 26.44779645441744  36.36993364516268 10.02128790549056 13.29668061441398  -28.92709770815203 27.60466880951951 1.097851583669779  -6.294583760480129 10.05949488046475 38.19927719253603  -0.5732106132877703 22.25229659376332 33.23411990554291  5.961070500486472 10.32930728763289 38.18076805730713  15.69016652060703 36.79208129472606 -0.4017817291655198  -23.87893484396823 -32.05026657673804 1.605267291620958  -16.44435478880617 16.61941719690225 32.45578789083971  10.67362182951251 26.67086351114236 27.83413078597155  -14.26494849606465 -36.60552151699818 7.519776517504123  -16.82045228930869 36.26229629574933 1.455421637318526  -9.669985168451094 -5.610921413932707 38.40584522867069  -4.759318982813219 -39.43908311313498 4.680556165143748  4.929698338875676 38.15951181373291 -10.93388002610532  6.331267177198703 -7.34305917145209 -38.80714544945917  -3.874695763035156 -5.434215034896615 -7.446881206144019  3.404479944026854 -5.899697724714222 -7.321412641541299  -3.874695763035153 5.434215034896617 7.446881206144019  -6.695121459858198 7.262827408017331 1.55778261612412  -0.3178716214830341 9.994807183174938 -0.05279207715566485  -6.695121459858203 -7.262827408017326 -1.557782616124119  -0.3178716214830321 -9.994807183174938 0.05279207715566547  3.404479944026856 5.899697724714219 7.321412641541301  8.005297600263845 5.983203940180543 0.3412930433190445  8.005297600263843 -5.983203940180546 -0.3412930433190435  -8.05120342482333 1.327090644721389 5.780739903576882  -4.330331032753904 -1.042833389081882 8.953252574868225  -5.606081433455704 -6.373604325737287 5.2866831624759  3.196409336378548 -7.561827574594316 5.709792560716817  -10 -3.216245299353273e-15 1.645257237962959e-16  -8.05120342482333 -1.327090644721383 -5.780739903576883  -4.330331032753905 1.042833389081885 -8.953252574868225  -5.606081433455699 6.373604325737289 -5.286683162475901  0.4631774941740192 4.300786277589142 -9.016024844874353  3.196409336378557 7.561827574594314 -5.709792560716815  0.463177494174015 -4.300786277589141 9.016024844874353  -4.364766504141945 5.959686077143495 -23.99417745894191  -17.32206894581589 6.492370224912959 -15.46622156174631  21.30835213115306 -7.607319611115857 8.826208444545252  -4.323140717896897 -5.902849905380496 23.76535044125745  -17.23209730169049 -6.458648547367763 15.38588927657467  -3.078910292976577 17.55101558280523 -14.76581400580386  21.09300810634053 7.530439390017117 -8.737010028891884  10.11820079106462 -11.40689218156813 19.61560153329077  9.286858032571377 -4.820286805617798 -22.42045861406733  10.14223501198011 10.86013031339685 -19.09618190810159  -3.061453769240007 -17.45150644126858 14.68209614521198  -22.31848346636936 8.984402796765265 5.46142323802996  -6.622900663982764 21.21276150972698 9.758593188156286  -6.738463728411993 -21.582903211897 -9.928870984934054  9.968451978132775 -21.35284145819848 -6.825975425708355  -22.49660721735682 -9.056107289095735 -5.505010840850479  18.15356974031381 10.76900621033219 12.09442645644986  8.538306212446731 4.431755566181049 20.61329465778334  10.56154041990615 21.64293764431885 -2.747145880614288  -15.49786364085579 -18.78384422729284 4.906273590332722  21.60056326573593 -6.867778473783182 -5.84651869192715  -11.77118341119598 4.888114729564563 17.45730835229231  -11.80627295044741 -4.902686050703386 -17.50934805681934  -14.95591423677991 18.77781128893655 -4.819258877917026  5.957389685144256 17.43078429069943 15.32730299013358  12.21720775169839 -18.84061606183486 7.308107711905766  -0.5141391421913668 -12.91437214785632 -18.08347403977128  -2.584952713747109 22.67983420511977 -2.668577670709162  -0.3593501861438191 -23.89371544024119 2.432898011868648  21.60056326573592 3.250893619673534 2.874776883476643  -16.12722543106809 8.115052017796405 -3.620338880917837  -5.994258944348162 8.540089865480516 -14.50195949428324  -0.2036798652376973 7.667303510131322 16.62867142135736  -16.10757060284825 -8.105161912763366 3.615926644038888  7.17237910875163 15.36353631669454 4.911342668610937  -12.63228235989196 -9.228907399196668 -8.915542376366064  -12.60803396435314 9.211191978449172 8.898428477877573  -5.9703697868867 -8.506054707269017 14.4441642610317  </DataArray>
</Points>
<Cells>
[...]
<PointData  Vectors="f_31-1"> 
<DataArray  type="Float64"  Name="f_31-1"  NumberOfComponents="3" format="ascii">-5.6516141370273605e+00 -1.6117736708033902e+01 2.1590469901763690e+01  -4.5961559549193214e+02 2.4339365557217135e+02 9.6084436154743514e+01  1.8661657926794346e+03 -2.5480772675509611e+03 1.0258764866479942e+04  6.6747586733783280e+00 -2.5126432457482733e+02 -5.4493628663505103e+02  1.1884090341630721e+01 6.0654555009491759e+01 -2.7836359740525324e+01  7.1164289041222119e+01 2.9609531626198452e+02 -7.6759112431812738e+01  -2.6897242628206108e+01 -4.1660163928922271e+00 -4.9165573658217454e-01  -1.5347648385990888e+02 2.0431372945430191e+01 5.3700575566843796e+01  1.5088839545889451e+01 9.9995612772336493e+00 -3.6036061136435102e+01  1.1593778766239538e+02 1.9154557914038453e+01 1.5678683263661705e+01  4.8851756446108901e+01 9.0196267072911311e+00 2.2910917944795017e+01  1.8015540998318139e+02 1.8630064224946331e+01 1.5713384455268607e+02  9.2987863114387201e+03 -2.8804670556771621e+03 -3.8516834038072038e+03  -1.8475650517759061e+03 4.0006414241641050e+03 -1.0951562798829655e+04  1.8771154141792499e+03 -1.2888948628636545e+03 -8.8523028969792722e+02  -1.5341583753662688e+01 -2.5871531184071150e+00 -7.0352095168493975e+01  -1.5680131364938681e+01 8.1788031017858991e+00 9.7615240580638218e+00  -3.9093297989796064e+01 -2.9376703134174146e+01 -3.4225918864338162e+01  3.0990202522229175e+01 5.1067377352503584e+01 -4.3711869705058866e+01  5.3787869540052757e-01 3.5090403178229690e+00 -1.5704533927278015e+00  1.5198833166457465e+01 -9.6691013077927721e+00 -5.5204850842824563e+01  -1.6094124425437670e+01 -2.7959773466646531e+01 -1.6995160966176925e+01  4.1035195820014401e+01 -9.2876138174822302e+01 -5.1909456439403577e+01  2.2369276505993916e+01 -2.6370225893357940e+01 -5.8939047454976503e+01  2.4212975519505761e+01 -8.5127853261410973e+00 -3.1243414724810918e+01  4.5843484976039228e+01 5.0526913422941981e+01 -4.0448391921637338e+01  4.5939088225625829e+02 -2.2959395336685930e+02 6.1849783589765458e+01  1.6878092027034413e+00 -1.2626592472365816e+01 -3.2707232514042595e-01  -4.0353476637440167e+01 -4.3035174050550921e+01 -1.3979007663118709e+01  -1.7677687820484081e+01 1.6074291915877912e+00 -1.3772781944084839e+01  -1.0530911670896890e+01 1.0697678977500051e+00 -3.7327968389335773e+01  -7.8928643001429837e+00 4.7136404940048585e+01 -1.6730871668854394e+02  1.7346881518549868e+01 3.1940890444464426e+01 4.3990148920514848e+01  -7.0446357565178390e+00 -5.4540800812262171e+00 -7.9517055665602392e+00  9.3044207209654708e+00 -2.0369301347496716e+01 -4.3293243883524735e+00  2.3691962840085057e+02 -5.8383664203862111e+01 1.1376850545375532e+02  -2.2384953910665331e+01 3.1625142021634971e+01 8.1150250884413651e+01  -1.1902380094043902e+02 1.1707624600086781e+02 2.4362889160790792e+02  3.4900687622372359e+01 -1.2689847072129301e+02 3.5890529114280426e+01  -5.0872896119454111e+01 -2.6421063303476507e+02 6.1834144996301028e+01  5.6377761428045403e-02 -1.3955550536571315e+02 8.9032666278196245e+01  1.5627818950335021e+01 -1.1679912072946669e+02 -6.0562149289475244e+01  2.3409770965144755e+01 -3.9489085890196527e+01 -1.7439560369632769e+01  -4.3236717061653501e+01 -7.3002361742048336e+00 2.6781859005193642e+01  6.6673227731339999e+00 -3.3674373134722430e+01 -2.8716713146465782e+00  3.1119605649182088e+01 1.0290688243640702e+02 -1.4549955729726841e+02  4.8804319788775627e+00 -9.0822101960841621e+00 -3.1121688051409280e-01  -2.1269213996250659e+02 7.3242423544319280e+01 4.4915729594838851e+01  4.1897999099677804e+01 -3.4306231573925969e+00 -1.8941692759045342e+01  -5.1513684932982862e+01 -4.7323311073425934e+01 -9.4747191425870056e+00  2.0385713920240992e+01 -6.4422327142017011e+01 -1.4846229793535394e+02  -9.2598918159499988e+01 -1.0225828822790412e+01 -3.5124599204478301e+01  -2.4914869118343326e+00 4.8084904733685960e+01 9.7067634671248051e+00  9.3665129696436935e+01 -5.3147827247236137e+00 1.1650662046384046e+01  -1.7544102765296537e+02 2.6416489146792884e+02 -2.6616447336960209e+02  -2.8314691467333507e+01 1.0693425040014684e+01 -2.0457932610241343e+01  -6.6690509138612555e+01 -1.6194185450068463e+01 -2.2461713830933526e+01  -1.4723385936188551e+01 3.9725030151500391e+00 -2.2019563615087932e+01  -4.8632614460558425e+00 -3.6030676267798150e+00 -5.5832074133009231e+00  -4.3655885303062396e+00 1.6995919795136899e+01 2.7390396534226147e+00  9.1731889080808330e+01 6.1699297395773335e+01 3.7822765087978922e+01  -3.6691845618618643e+01 -4.6847346654850632e+01 -2.4276885766589210e+01  -1.9847816454326782e+01 2.5828740265730396e+01 1.5055274927374640e-01  1.8279076385927752e+01 3.1431943422734161e+00 3.5987934994180137e+01  1.2957295518191492e+02 -7.8094453759767688e+01 -1.6749831657208368e+01  -1.1425653539580051e+02 1.8013629647524678e+02 7.2714245540546017e+01  -2.6760822890220762e+01 -1.5167852543661451e+02 1.1499303261098990e+02  2.4534474125020324e+01 2.0593702866110938e+01 -7.0292824163001999e-01  -6.7558494533596701e+01 -4.9803851367907001e+01 1.2206802861246713e+02  4.6813676429623875e+01 2.6039959027633678e+01 -5.3151742814055993e+01  9.0368715878333283e+00 -4.2500126545006331e+01 -5.6369011459929048e+01  9.0323933470063267e-01 1.1479794866998841e+01 4.4987055130619972e+01  1.0338725798107049e+01 -7.7125065722849726e+01 3.0749955233718165e+01  5.0611486548729911e-01 2.1794491599119944e+01 -8.0785404543383397e+00  -5.1704235473206062e+01 7.9739795163436440e+01 2.4737682043486643e+01  -1.1425855663004764e+01 1.5328720653588880e+01 -1.4709358527994802e+01  -3.4889057489344331e+01 -1.2122575292298497e+02 1.9956958720352283e+01  -7.8598038841504287e+00 2.2329311267893743e+00 -2.0611644243804911e+01  7.3421137918480298e+01 -1.5127646055258251e+02 1.3054187885345567e+02  1.0314996375318881e+01 -4.0890816073036023e+00 6.0356738045602336e+00  3.5528883608381960e+01 -5.9348561441946629e+01 4.4419125910098465e+01  8.7455026508868059e+01 2.0133337065931414e+02 -1.8553338670693000e+02  6.4136602825984141e+01 7.9310752228105557e+01 5.4729665432356128e+01  1.3799383430639674e+01 -6.8049480247961149e+00 2.7456761474344273e+01  1.5535791850960596e+01 6.1391571913700353e+00 -1.8553411347622122e+02  2.5319865582629117e+01 3.4886863466929512e+01 1.0277442473052599e+01  2.2801305619785911e+01 2.4345930386290799e+01 -6.8416774579060899e+01  -8.6550867773367699e+00 5.8590154171124532e+01 -7.2528060829938426e+01  -2.9386629929778543e+01 -9.6065069957150175e+00 -2.1513012710850237e+01  2.0409106829918500e+01 -3.1021627405585953e+01 3.5864939994114771e+01  -7.6768417098524555e+00 -5.7306936203592542e+00 5.8070096791997720e+01  -4.2391821358375879e+00 -1.7489895978982688e+01 -1.0442659876435640e+01  -1.6287395577903691e+01 -7.4004950239655276e-01 -1.7245559997151044e+01  -1.2811786500810118e+01 -1.7898894202774983e+01 2.5771577248123030e+01  -2.1649285812757835e+01 -2.4460963235557194e+00 -3.3695381947824956e+01  5.0615279912939251e+00 -1.5471730835547122e+01 1.2636795668063113e+01  -6.8281940552471355e+01 -1.8520088011397565e+01 -2.5793021680255357e+01  -1.6829086771208793e+02 7.5561735443479961e+01 -5.1499649508645284e+01  -1.9035703192196173e+01 -7.3748195246419471e+01 -7.0645163332248245e+01  -5.6286599865469704e+01 3.7989043509919227e+01 3.1097744761123710e+01  -6.1237301000069966e+00 5.2438215547372264e+00 6.4026974418069904e-01  -3.2302303052415104e+00 -7.1832627691943401e-02 -4.1575298455546289e-01  -4.2021322902765341e+01 -3.3782650174731778e+01 2.3205363754283013e+01  7.5599526623795263e+00 1.7721388072634710e+01 5.4943522870023244e+01  1.5481021577151708e+01 -2.3679682365086190e+01 1.3752344814738837e+00  -4.4812163251857683e+01 -2.0393736589898026e-01 -1.2597738613146586e+02  -4.6707565631574795e+01 -9.8272852186693314e+00 -1.1156646909060324e+01  -2.3667477729029966e+02 1.1882660001683611e+01 2.8932389594111150e+01  1.4825422616398869e+01 9.7993969108028232e+00 -1.4838420884779833e+01  -5.8012223794440372e+00 4.1919502588861404e+00 7.4566329074472861e+00  2.1870755374614092e+01 -1.4115878247931724e+01 -6.8280061075474549e+01  6.4337800929500144e-02 -4.9566411764596428e+00 -6.7052657663348150e+00  -2.4270933276288076e+01 -1.3284133840307252e+01 8.4143132180271021e+00  -2.6800722930166732e+01 4.4718614332715077e+01 5.9160564317845363e+00  1.8253223248907973e+00 7.1454318309393638e+00 1.7157819865214702e+01  1.4370167763547126e+01 -1.3419356158276859e+01 -2.0360753958655135e+01  -3.0670344987525709e+01 -1.1021470949689842e+02 4.0883639574444594e+01  2.3603746744892788e+01 -7.0772136570243420e+00 -4.6165483480544944e-01  8.7043628638585994e+02 6.3598520782052685e+02 6.1433171428292133e+02  2.1950430961258967e+01 8.2624623331523730e+02 1.7920597671909957e+03  -9.5806466189902983e+02 7.0000484735303087e+02 6.7617758449085068e+02  4.7107896756346354e+03 2.1050584622813603e+03 4.7607298965073738e+02  1.0906023937822547e+03 -2.2696503758243421e+03 4.6839880278725559e+02  2.2169437692802348e+03 -2.0221034223293525e+03 -9.0021067502960079e+01  1.9135515591529806e+03 3.9823020316766197e+03 -8.2184423092021893e+02  5.5208251470920350e+03 -1.6950113413725926e+03 2.6941544482656650e+03  1.7762703436437903e+03 3.8047198664228931e+03 1.2163150035880506e+03  -1.5685907711691959e+03 4.8575520169488215e+02 6.4973156114098947e+02  6.4509319665148651e+03 -4.7128031426025245e+03 -4.5529030446969600e+03  3.1655955751161827e+02 4.5107404791904048e+02 -7.6585514975068543e+02  6.5546506960023578e+02 6.1475704339357230e+02 -1.8414960112580542e+02  -4.6325924989495634e+03 -4.3553524344031985e+03 4.6605047680036455e+02  2.8219702166702327e+03 3.1206392182975678e+03 2.3496687741310600e+02  6.2250412672527841e+02 -1.1178953809487571e+03 4.6652329343847936e+02  -1.7172564298230481e+02 2.4472749914074743e+02 -4.1545728048896922e+02  3.3003312782061363e+02 -5.5481523752491444e+02 1.2460461284569043e+02  -7.3621006320152155e+03 6.9737239166401687e+03 -7.9223034807525903e+02  4.2410862947283795e+03 -1.6602716301911730e+02 -3.3423587366440565e+03  1.4134847428400747e+02 1.1054230348405194e+03 -9.7346933913127771e+02  -6.6637307562788422e+01 -8.7028195862807678e+01 3.2222324540922763e+01  1.8726155227263263e+02 1.3724561925008265e+02 2.5507871456528898e+02  -6.7316856735208574e+00 -2.3001332381445351e+01 1.2445653627342421e+02  5.7051809882271165e+01 9.5395626538662100e+01 -5.6490097514637284e+01  -1.1076325915966766e+01 -8.5578215030937244e+01 3.0612149495446960e+01  5.8256528669004069e+02 -2.8166632825360631e+02 5.0321299714109819e+02  6.9558855200846239e+01 4.8780614609549581e+01 8.1540690839069129e+01  1.5556528189078335e+01 -2.0751970006745332e+03 -2.4898763637368797e+03  1.8906558446606317e+02 4.6334672776113663e+01 4.3085629292331731e+01  -1.6672898297542906e+02 3.0105196361866598e+02 -1.1790855711845998e+02  -7.5445176541767296e+01 5.2330365731991174e+02 -1.7549731061759358e+03  -5.6317860493983903e+02 8.0503445360895057e+01 -3.5108193571448487e+02  1.6516583346547316e+02 1.5105397246831933e+02 -2.2683619394037345e+02  3.9287046588933379e+02 -4.8942750782518561e+02 8.5085753858416950e+00  1.4737867075751601e+02 -6.4242523993524685e+01 2.7893057102807596e+01  7.0895269640564578e+01 -7.0441136152171879e+01 -6.6030603704799731e+01  2.1448705493396002e+02 1.4800412743686539e+02 4.4672551880739718e+02  -1.4288268691752236e+02 -5.7267518189668112e+02 -1.3712784379376797e+03  1.8741129094976358e+02 -7.9819222930761543e+02 -2.4306216443498045e+02  6.5958225111400543e+02 -5.8321879616366869e+02 1.1172616825016233e+02  3.1848847565477691e+01 1.3389541704574935e+02 -5.0734361722564586e+01  2.8886977071235569e+03 2.1183948395419698e+03 1.4940695143538396e+03  3.7927422430182546e+01 -1.5575660952371152e+02 1.8364714215546215e+01  -4.2315411719640643e+01 2.6624327945984720e+02 1.4478183186817876e+02  -3.8737412387106062e+01 -4.2251141353126265e+01 4.4137353083648293e+01  -5.5411041501819838e+01 1.0063744264564247e+02 2.8556620595968241e+02  -4.3196879601298079e+01 -4.0862564590077668e+01 2.9446674616136907e+01  7.5838275603351428e+02 -2.5587884391358682e+02 -2.3528021552589362e+03  7.7211680663213997e+02 2.6173213738505115e+03 9.4472927528044465e+02  -7.0456571721503644e+02 4.1602300296869481e+02 -6.5368969349558142e+02  5.1526489989549509e+02 1.1360128318690006e+03 -3.3545567904235958e+02  -1.5853311654179429e+03 -4.2568152728982968e+03 -4.1952549531929235e+03  -5.1410704378601872e+02 3.5393366952509189e+02 3.7205043776816547e+02  -2.9687800691358620e+02 -3.8715016524301541e+03 -4.3471591908534374e+03  -2.2513676773766897e+03 1.8709630742817255e+03 -8.2610844633966190e+02  6.5867569277157315e+02 -5.1064359860546961e+02 -2.5640148818256932e+02  -3.5449996432411035e+02 -6.4341845944482500e+01 -3.2742381437623931e+02  8.9821784758338003e+02 1.0493096209163836e+04 8.1785646293190948e+03  </DataArray> 
</PointData> 
</Piece>
</UnstructuredGrid>
</VTKFile>