<?xml version="1.0"?>
<VTKFile type="UnstructuredGrid"  version="0.1"  >
<UnstructuredGrid>
<Piece  NumberOfPoints="6285" NumberOfCells="29930">
<Points>
<DataArray  type="Float64"  NumberOfComponents="3"  format="ascii">0 0 0  0 0 40  0 40 0  0 40 40  40 0 0  40 0 40  40 40 0  40 40 40  0 0 2.105263157894737  0 0 4.210526315789473  0 0 6.315789473684211  0 0 8.421052631578947  0 0 10.52631578947368  0 0 12.63157894736842  0 0 14.73684210526316  0 0 16.84210526315789  0 0 18.94736842105263  0 0 21.05263157894737  0 0 23.15789473684211  0 0 25.26315789473684  0 0 27.36842105263158  0 0 29.47368421052632  0 0 31.57894736842105  0 0 33.68421052631579  0 0 35.78947368421052  0 0 37.89473684210526  0 2.105263157894737 0  0 4.210526315789473 0  0 6.315789473684211 0  0 8.421052631578947 0  0 10.52631578947368 0  0 12.63157894736842 0  0 14.73684210526316 0  0 16.84210526315789 0  0 18.94736842105263 0  0 21.05263157894737 0  0 23.15789473684211 0  0 25.26315789473684 0  0 27.36842105263158 0  0 29.47368421052632 0  0 31.57894736842105 0  0 33.68421052631579 0  0 35.78947368421052 0  0 37.89473684210526 0  0 40 2.105263157894737  0 40 4.210526315789473  0 40 6.315789473684211  0 40 8.421052631578947  0 40 10.52631578947368  0 40 12.63157894736842  0 40 14.73684210526316  0 40 16.84210526315789  0 40 18.94736842105263  0 40 21.05263157894737  0 40 23.15789473684211  0 40 25.26315789473684  0 40 27.36842105263158  0 40 29.47368421052632  0 40 31.57894736842105  0 40 33.68421052631579  0 40 35.78947368421052  0 40 37.89473684210526  0 2.105263157894737 40  0 4.210526315789473 40  0 6.315789473684211 40  0 8.421052631578947 40  0 10.52631578947368 40  0 12.63157894736842 40  0 14.73684210526316 40  0 16.84210526315789 40  0 18.94736842105263 40  0 21.05263157894737 40  0 23.15789473684211 40  0 25.26315789473684 40  0 27.36842105263158 40  0 29.47368421052632 40  0 31.57894736842105 40  0 33.68421052631579 40  0 35.78947368421052 40  0 37.89473684210526 40  40 0 2.105263157894737  40 0 4.210526315789473  40 0 6.315789473684211  40 0 8.421052631578947  40 0 10.52631578947368  40 0 12.63157894736842  40 0 14.73684210526316  40 0 16.84210526315789  40 0 18.94736842105263  40 0 21.05263157894737  40 0 23.15789473684211  40 0 25.26315789473684  40 0 27.36842105263158  40 0 29.47368421052632  40 0 31.57894736842105  40 0 33.68421052631579  40 0 35.78947368421052  40 0 37.89473684210526  40 2.105263157894737 0  40 4.210526315789473 0  40 6.315789473684211 0  40 8.421052631578947 0  40 10.52631578947368 0  40 12.63157894736842 0  40 14.73684210526316 0  40 16.84210526315789 0  40 18.94736842105263 0  40 21.05263157894737 0  40 23.15789473684211 0  40 25.26315789473684 0  40 27.36842105263158 0  40 29.47368421052632 0  40 31.57894736842105 0  40 33.68421052631579 0  40 35.78947368421052 0  40 37.89473684210526 0  40 40 2.105263157894737  40 40 4.210526315789473  40 40 6.315789473684211  40 40 8.421052631578947  40 40 10.52631578947368  40 40 12.63157894736842  40 40 14.73684210526316  40 40 16.84210526315789  40 40 18.94736842105263  40 40 21.05263157894737  40 40 23.15789473684211  40 40 25.26315789473684  40 40 27.36842105263158  40 40 29.47368421052632  40 40 31.57894736842105  40 40 33.68421052631579  40 40 35.78947368421052  40 40 37.89473684210526  40 2.105263157894737 40  40 4.210526315789473 40  40 6.315789473684211 40  40 8.421052631578947 40  40 10.52631578947368 40  40 12.63157894736842 40  40 14.73684210526316 40  40 16.84210526315789 40  40 18.94736842105263 40  40 21.05263157894737 40  40 23.15789473684211 40  40 25.26315789473684 40  40 27.36842105263158 40  40 29.47368421052632 40  40 31.57894736842105 40  40 33.68421052631579 40  40 35.78947368421052 40  40 37.89473684210526 40  2.105263157894737 0 0  4.210526315789473 0 0  6.315789473684211 0 0  8.421052631578947 0 0  10.52631578947368 0 0  12.63157894736842 0 0  14.73684210526316 0 0  16.84210526315789 0 0  18.94736842105263 0 0  21.05263157894737 0 0  23.15789473684211 0 0  25.26315789473684 0 0  27.36842105263158 0 0  29.47368421052632 0 0  31.57894736842105 0 0  33.68421052631579 0 0  35.78947368421052 0 0  37.89473684210526 0 0  2.105263157894737 0 40  4.210526315789473 0 40  6.315789473684211 0 40  8.421052631578947 0 40  10.52631578947368 0 40  12.63157894736842 0 40  14.73684210526316 0 40  16.84210526315789 0 40  18.94736842105263 0 40  21.05263157894737 0 40  23.15789473684211 0 40  25.26315789473684 0 40  27.36842105263158 0 40  29.47368421052632 0 40  31.57894736842105 0 40  33.68421052631579 0 40  35.78947368421052 0 40  37.89473684210526 0 40  2.105263157894737 40 0  4.210526315789473 40 0  6.315789473684211 40 0  8.421052631578947 40 0  10.52631578947368 40 0  12.63157894736842 40 0  14.73684210526316 40 0  16.84210526315789 40 0  18.94736842105263 40 0  21.05263157894737 40 0  23.15789473684211 40 0  25.26315789473684 40 0  27.36842105263158 40 0  29.47368421052632 40 0  31.57894736842105 40 0  33.68421052631579 40 0  35.78947368421052 40 0  37.89473684210526 40 0  2.105263157894737 40 40  4.210526315789473 40 40  6.315789473684211 40 40  8.421052631578947 40 40  10.52631578947368 40 40  12.63157894736842 40 40  14.73684210526316 40 40  16.84210526315789 40 40  18.94736842105263 40 40  21.05263157894737 40 40  23.15789473684211 40 40  25.26315789473684 40 40  27.36842105263158 40 40  29.47368421052632 40 40  31.57894736842105 40 40  33.68421052631579 40 40  35.78947368421052 40 40  37.89473684210526 40 40  0 19.88542105842926 20.14459750817559  0 28.24292125267054 28.29615110569368  0 28.22144882141427 11.60638764650442  0 11.7004048582996 28.2995951417004  0 11.67167371817781 11.76897832570187  0 31.19396776837708 19.84811063559529  0 20 31.25351974559769  0 19.96798980522932 9.150779648960754  0 8.746480254402304 19.99999999999999  0 33.15453690734309 33.15453690734309  0 7.103318508949681 33.26304526185019  0 33.15453690734309 6.84546309265691  0 6.845463092656907 6.845463092656907  0 25.62675987279884 22.67283526890157  0 14.4372049627659 22.52939632050765  0 22.65056041768737 13.9788630753616  0 33.86878666161537 25.5913175508723  0 6.119424889891178 25.61896316817804  0 25.61566737605655 6.34375310696348  0 14.28568715129448 33.80461861038459  0 25.5797364481457 33.96911407894729  0 6.157597691748424 14.40311989366142  0 14.40311989366142 6.157597691748426  0 33.74479425833921 14.34186596381549  0 16.71097313575808 14.98943172254152  0 20.89505733250004 25.72342157008892  0 26.67653649919175 17.62374126724691  0 12.1184506163962 16.52465833182706  0 16.34115024717801 28.13654314455546  0 23.5837538503266 28.74138320063397  0 21.42430629793694 35.51868746660692  0 21.33373528965977 4.323469669985485  0 35.56874398769372 21.37515785822271  0 4.323469669985483 21.33373528965977  0 16.01650960000051 10.71536364670654  0 35.63977110495293 10.42939944505624  0 35.18336026535979 29.4122247934229  0 10.52501358932003 4.601315773269239  0 10.31741434643353 35.59741526669944  0 29.79100847017489 4.497938019337433  0 4.515174982468171 10.27964677994659  0 4.816639734640193 29.41222479342291  0 29.79100847017489 35.50206198066255  0 24.37999783072846 10.29399668207546  0 29.68061531220442 24.14298056134898  0 10.28035879270493 24.17683404074391  0 15.85116308566965 18.66248582636373  0 36.33236823475951 36.39192366224083  0 3.507949742344294 36.36515324645886  0 36.33236823475951 3.608076337759172  0 3.608076337759176 3.667631765240484  0 29.86579144231578 15.38430666531411  0 36.1741510324436 17.55118625450862  0 17.58807066372222 36.42145820247983  0 3.779403788970913 17.60772519850845  0 17.55118625450863 3.825848967556386  0 31.77954496508579 29.69215393918936  0 31.86020673743339 10.42680197756478  0 8.228043107400364 29.69405802556001  0 10.31087901390799 8.223531342384808  0 19.43949902498449 12.52739032016536  0 8.10330172759547 11.41096025505637  0 28.64955631399258 31.91328313089472  0 28.82897267741697 8.011940523384663  0 11.09664563816603 32.13239597481969  0 18.04176989515551 23.13664932602129  0 23.62710118516797 19.62339995487778  0 19.98564703557615 16.50706043418738  0 12.23438837839452 20.01566301166867  0 25.59360682107501 26.04205767332311  0 26.07421682111778 14.27466304937342  0 9.512005922468791 14.20543876654002  0 16.59062353681434 31.25006466672251  0 36.73168263515863 32.70996592803593  0 32.72840745844071 36.78115740846742  0 3.194724063887106 32.7631242352361  0 7.324541723865571 36.77911874002915  0 32.72840745844071 3.218842591532564  0 36.73168263515866 7.290034071964077  0 7.290034071964076 3.268317364841344  0 3.218842591532554 7.271592541559291  0 22.32754448446022 22.40617980495195  0 13.92908926399608 25.9100616372384  0 24.3880655356674 36.86473059010232  0 24.3880655356674 3.135269409897679  0 3.104664847080411 24.38154414797956  0 36.89533515291959 24.38154414797957  0 28.03360150499665 20.68798603497803  0 36.85984695985673 13.82890644116498  0 13.78492424539572 36.90515121739321  0 13.82890644116499 3.140153040143266  0 3.094848782606775 13.78492424539571  0 23.06675587502636 31.96789165366257  0 17.19917689462243 7.218656191088519  0 32.85214662569848 17.17053414292939  0 6.972274264468123 17.42347902758489  0 32.71525156484966 22.72105844979341  0 22.7210584497934 7.284748435150314  0 7.284748435150309 22.72105844979339  0 13.78542479806215 13.86740954758692  0 13.44795162328684 8.851942213074953  0 19.47382917551452 28.31420947698172  0 13.80490642940121 30.30255979040862  0 26.05850564735392 30.90309233390059  0 8.732697485374198 26.70813039391131  0 31.29841139135691 26.66558304581768  0 27.17825316879635 2.715604476539471  0 2.7972340869562 27.0678104944747  0 27.17825316879636 37.28439552346053  0 37.20276591304381 27.06781049447471  0 24.02369042603345 16.80505565726467  0 18.25776915641275 33.50008376315235  0 29.51910092327186 18.16311044100157  0 31.94232686712631 12.98184691022234  0 9.635272823187679 17.48884842133076  0 17.83573510695689 25.36664845384313  0 21.59060146275263 10.86899815325219  
[...]
<PointData  Vectors="f_66"> 
<DataArray  type="Float64"  Name="f_66"  NumberOfComponents="3" format="ascii">6.3664988665222300e-02 1.0000000000000000e+00 4.4408920985006262e-16  0.0000000000000000e+00 1.0636649886652223e+00 0.0000000000000000e+00  0.0000000000000000e+00 1.0000000000000004e+00 0.0000000000000000e+00  0.0000000000000000e+00 1.0567691991620527e+00 0.0000000000000000e+00  -5.7004840656798117e-02 9.9984864061415357e-01 4.4408920985006262e-16  -5.7004840656797784e-02 9.9984864061415357e-01 -4.4408920985006262e-16  0.0000000000000000e+00 9.9984864061415424e-01 0.0000000000000000e+00  0.0000000000000000e+00 9.9984864061415413e-01 0.0000000000000000e+00  0.0000000000000000e+00 9.9999999999999944e-01 0.0000000000000000e+00  0.0000000000000000e+00 1.0000000000000000e+00 0.0000000000000000e+00  0.0000000000000000e+00 1.0000000000000004e+00 0.0000000000000000e+00  0.0000000000000000e+00 9.9999999999999978e-01 0.0000000000000000e+00  0.0000000000000000e+00 1.0000000000000004e+00 0.0000000000000000e+00  0.0000000000000000e+00 1.0000000000000004e+00 0.0000000000000000e+00  0.0000000000000000e+00 9.9999999999999978e-01 0.0000000000000000e+00  0.0000000000000000e+00 1.0000000000000004e+00 0.0000000000000000e+00  0.0000000000000000e+00 9.9999999999999978e-01 0.0000000000000000e+00  0.0000000000000000e+00 1.0000000000000004e+00 0.0000000000000000e+00  0.0000000000000000e+00 1.0000000000000000e+00 0.0000000000000000e+00  0.0000000000000000e+00 9.9999999999999956e-01 0.0000000000000000e+00  0.0000000000000000e+00 1.0000000000000000e+00 0.0000000000000000e+00  0.0000000000000000e+00 9.9999999999999944e-01 0.0000000000000000e+00  0.0000000000000000e+00 1.0000000000000004e+00 0.0000000000000000e+00  0.0000000000000000e+00 9.9999999999999978e-01 0.0000000000000000e+00  0.0000000000000000e+00 1.0000000000000000e+00 0.0000000000000000e+00  0.0000000000000000e+00 9.9999999999999933e-01 0.0000000000000000e+00  -4.5516616594829751e-02 1.0000000000000013e+00 5.1070259132757201e-15  -2.9907096314125026e-02 1.0000000000000013e+00 3.3306690738754696e-15  6.3043271117330768e-02 1.0000000000000000e+00 1.1102230246251565e-16  -6.3043271117330990e-02 1.0000000000000013e+00 4.4408920985006262e-15  1.0722331286460729e-01 1.0000000000000000e+00 4.4408920985006262e-16  6.2834112585182567e-02 1.0000000000000000e+00 2.2204460492503131e-16  -5.9949494524903280e-02 1.0000000000000013e+00 4.4408920985006262e-15  6.5228490151329255e-02 1.0000000000000000e+00 2.2204460492503131e-16  -7.8944462167021667e-02 1.0000000000000013e+00 3.9968028886505635e-15  9.9532207213936963e-02 1.0000000000000000e+00 2.2204460492503131e-16  5.2587870243882895e-02 1.0000000000000000e+00 1.1102230246251565e-16  -7.4566209638865288e-02 1.0000000000000013e+00 4.2188474935755949e-15  -2.9897218654911302e-02 1.0000000000000004e+00 2.7755575615628914e-17  -5.7417169475855845e-02 1.0000000000000013e+00 3.4416913763379853e-15  6.4372840733297410e-02 9.9999999999999989e-01 1.1102230246251565e-16  -6.4092310396323127e-02 1.0000000000000013e+00 4.2188474935755949e-15  2.9907096314121140e-02 1.0000000000000000e+00 1.1102230246251565e-16  4.5793422927880245e-02 1.0000000000000018e+00 -5.5511151231257827e-15  0.0000000000000000e+00 9.9999999999999933e-01 0.0000000000000000e+00  0.0000000000000000e+00 9.9999999999999978e-01 0.0000000000000000e+00  0.0000000000000000e+00 1.0000000000000004e+00 0.0000000000000000e+00  0.0000000000000000e+00 9.9999999999999978e-01 0.0000000000000000e+00  0.0000000000000000e+00 1.0000000000000007e+00 0.0000000000000000e+00  0.0000000000000000e+00 1.0000000000000002e+00 0.0000000000000000e+00  0.0000000000000000e+00 9.9999999999999978e-01 0.0000000000000000e+00  0.0000000000000000e+00 9.9999999999999944e-01 0.0000000000000000e+00  0.0000000000000000e+00 9.9999999999999967e-01 0.0000000000000000e+00  0.0000000000000000e+00 1.0000000000000004e+00 0.0000000000000000e+00  0.0000000000000000e+00 1.0000000000000004e+00 0.0000000000000000e+00  0.0000000000000000e+00 1.0000000000000004e+00 0.0000000000000000e+00  0.0000000000000000e+00 9.9999999999999956e-01 0.0000000000000000e+00  0.0000000000000000e+00 9.9999999999999956e-01 0.0000000000000000e+00  0.0000000000000000e+00 1.0000000000000000e+00 0.0000000000000000e+00  0.0000000000000000e+00 9.9999999999999944e-01 0.0000000000000000e+00  0.0000000000000000e+00 1.0000000000000004e+00 0.0000000000000000e+00  0.0000000000000000e+00 9.9999999999999978e-01 0.0000000000000000e+00  -4.5516616594830417e-02 1.0000000000000013e+00 -4.8849813083506888e-15  -2.9907096314125026e-02 1.0000000000000013e+00 -3.4416913763379853e-15  6.3043271117330879e-02 9.9999999999999989e-01 -3.3306690738754696e-16  -6.3043271117331212e-02 1.0000000000000013e+00 -4.6629367034256575e-15  1.0722331286460707e-01 1.0000000000000000e+00 -3.3306690738754696e-16  6.2834112585182789e-02 1.0000000000000000e+00 -2.2204460492503131e-16  -5.9949494524903280e-02 1.0000000000000018e+00 -4.8849813083506888e-15  6.5181618146187614e-02 1.0000000000000000e+00 -2.2204460492503131e-16  -7.8804564292393575e-02 1.0000000000000018e+00 -4.2188474935755949e-15  9.4005184897682725e-02 1.0000000000000000e+00 -3.3306690738754696e-16  5.2372571872730034e-02 1.0000000000000000e+00 -1.1102230246251565e-16  -7.4850380333383315e-02 1.0000000000000013e+00 -4.4408920985006262e-15  8.5694577336906663e-02 1.0000000000000000e+00 -2.2204460492503131e-16  -5.7888953052542602e-02 1.0000000000000013e+00 -3.2196467714129540e-15  6.5078275426054155e-02 1.0000000000000000e+00 -2.2204460492503131e-16  -6.5041801822991463e-02 1.0000000000000013e+00 -4.4408920985006262e-15  2.9907096314125053e-02 1.0000000000000000e+00 -1.3877787807814457e-16  4.6557853876481925e-02 1.0000000000000018e+00 5.1070259132757201e-15  0.0000000000000000e+00 9.9984864061415291e-01 0.0000000000000000e+00  1.1102230246251565e-16 9.9984864061415368e-01 -6.6613381477509392e-16  0.0000000000000000e+00 9.9984864061415413e-01 0.0000000000000000e+00  0.0000000000000000e+00 9.9984864061415346e-01 0.0000000000000000e+00  0.0000000000000000e+00 9.9984864061415402e-01 0.0000000000000000e+00  0.0000000000000000e+00 9.9984864061415391e-01 0.0000000000000000e+00  0.0000000000000000e+00 9.9984864061415346e-01 0.0000000000000000e+00  0.0000000000000000e+00 9.9984864061415379e-01 0.0000000000000000e+00  0.0000000000000000e+00 9.9984864061415313e-01 0.0000000000000000e+00  0.0000000000000000e+00 9.9984864061415402e-01 0.0000000000000000e+00  -1.7221252377125323e-01 9.9984864061415379e-01 3.3306690738754696e-16  0.0000000000000000e+00 9.9984864061415335e-01 0.0000000000000000e+00  0.0000000000000000e+00 9.9984864061415391e-01 0.0000000000000000e+00  0.0000000000000000e+00 9.9984864061415302e-01 0.0000000000000000e+00  0.0000000000000000e+00 9.9984864061415379e-01 0.0000000000000000e+00  0.0000000000000000e+00 9.9984864061415335e-01 0.0000000000000000e+00  0.0000000000000000e+00 9.9984864061415391e-01 0.0000000000000000e+00  0.0000000000000000e+00 9.9984864061415313e-01 0.0000000000000000e+00  4.6751109417189740e-02 9.9984864061415513e-01 4.8849813083506888e-15  3.0076750845308364e-02 9.9984864061415490e-01 3.1086244689504383e-15  -6.3374874333536613e-02 9.9984864061415368e-01 2.2204460492503131e-16  6.3374874333535614e-02 9.9984864061415502e-01 4.4408920985006262e-15  -5.7494950960669700e-02 9.9984864061415357e-01 1.1102230246251565e-16  1.0048321189590137e-01 9.9984864061415490e-01 3.7747582837255322e-15  -6.7859187257166775e-02 9.9984864061415368e-01 2.2204460492503131e-16  5.7832454490083229e-02 9.9984864061415502e-01 4.2188474935755949e-15  9.4799481396480534e-02 9.9984864061415490e-01 3.1086244689504383e-15  -7.8316509757335506e-02 9.9984864061415357e-01 1.1102230246251565e-16  6.0650168018328010e-02 9.9984864061415490e-01 3.9968028886505635e-15  -6.0197540290183427e-02 9.9984864061415368e-01 1.1102230246251565e-16  6.3028640349558573e-02 9.9984864061415524e-01 4.4408920985006262e-15  1.0836186109054124e-01 9.9984864061415490e-01 3.1086244689504383e-15  -6.3374874333534947e-02 9.9984864061415368e-01 1.1102230246251565e-16  6.3374874333536058e-02 9.9984864061415502e-01 3.9968028886505635e-15  -3.0076750845302924e-02 9.9984864061415357e-01 1.1102230246251565e-16  -4.5993220770527810e-02 9.9984864061415490e-01 -5.1070259132757201e-15  0.0000000000000000e+00 9.9984864061415313e-01 0.0000000000000000e+00  0.0000000000000000e+00 9.9984864061415313e-01 0.0000000000000000e+00  0.0000000000000000e+00 9.9984864061415391e-01 0.0000000000000000e+00  0.0000000000000000e+00 9.9984864061415324e-01 0.0000000000000000e+00  0.0000000000000000e+00 9.9984864061415402e-01 0.0000000000000000e+00  0.0000000000000000e+00 9.9984864061415335e-01 0.0000000000000000e+00  0.0000000000000000e+00 9.9984864061415402e-01 0.0000000000000000e+00  0.0000000000000000e+00 9.9984864061415335e-01 0.0000000000000000e+00  0.0000000000000000e+00 9.9984864061415324e-01 0.0000000000000000e+00  0.0000000000000000e+00 9.9984864061415391e-01 0.0000000000000000e+00  0.0000000000000000e+00 9.9984864061415302e-01 0.0000000000000000e+00  0.0000000000000000e+00 9.9984864061415402e-01 0.0000000000000000e+00  0.0000000000000000e+00 9.9984864061415335e-01 0.0000000000000000e+00  0.0000000000000000e+00 9.9984864061415302e-01 0.0000000000000000e+00  0.0000000000000000e+00 9.9984864061415368e-01 0.0000000000000000e+00  0.0000000000000000e+00 9.9984864061415302e-01 0.0000000000000000e+00  0.0000000000000000e+00 9.9984864061415402e-01 0.0000000000000000e+00  0.0000000000000000e+00 9.9984864061415302e-01 0.0000000000000000e+00  4.6751109417190184e-02 9.9984864061415513e-01 -5.7731597280508140e-15  3.0076750845308364e-02 9.9984864061415490e-01 -3.3306690738754696e-15  -6.3050053657665583e-02 9.9984864061415368e-01 -1.1102230246251565e-16  6.6755285334850534e-02 9.9984864061415502e-01 -4.4408920985006262e-15  -1.0706998646272137e-01 9.9984864061415357e-01 -1.1102230246251565e-16  -6.3133860852732426e-02 9.9984864061415357e-01 -4.4408920985006262e-16  6.0400068514746996e-02 9.9984864061415490e-01 -3.3861802251067274e-15  9.2081225224554197e-02 9.9984864061415490e-01 -4.2188474935755949e-15  7.9290722253189116e-02 9.9984864061415490e-01 -3.3306690738754696e-15  -9.4799481396479424e-02 9.9984864061415357e-01 -2.2204460492503131e-16  -5.2669230960384894e-02 9.9984864061415368e-01 -3.3306690738754696e-16  -2.3730336239869754e-02 9.9984864061415368e-01 -2.2204460492503131e-16  1.1317327918105047e-01 9.9984864061415524e-01 -4.4408920985006262e-15  5.8246072202697174e-02 9.9984864061415490e-01 -3.3306690738754696e-15  -6.5434161741575902e-02 9.9984864061415357e-01 -1.1102230246251565e-16  6.5397488679383997e-02 9.9984864061415490e-01 -4.2188474935755949e-15  -3.0076750845308031e-02 9.9984864061415368e-01 -1.6653345369377348e-16  1.3961102294496847e-02 1.0724153676368156e+00 5.1880821165317559e-02  0.0000000000000000e+00 2.5869511810281265e-01 0.0000000000000000e+00  -5.9271810240041800e-02 -9.0645396542434020e-01 3.1793186224063463e-02  0.0000000000000000e+00 -6.9769391666688696e-01 0.0000000000000000e+00  0.0000000000000000e+00 5.6821253015591333e-01 0.0000000000000000e+00  0.0000000000000000e+00 1.0042832661308101e+00 0.0000000000000000e+00  0.0000000000000000e+00 -1.0453027476705379e-01 0.0000000000000000e+00  0.0000000000000000e+00 -1.0288362887627405e+00 0.0000000000000000e+00  0.0000000000000000e+00 -4.0351893178202858e-01 0.0000000000000000e+00  0.0000000000000000e+00 8.2801273486611793e-01 0.0000000000000000e+00  0.0000000000000000e+00 8.1679500062404453e-01 0.0000000000000000e+00  0.0000000000000000e+00 -4.3025645494450071e-01 0.0000000000000000e+00  0.0000000000000000e+00 -1.0498963487464144e+00 0.0000000000000000e+00  0.0000000000000000e+00 -5.4449148845978346e-02 0.0000000000000000e+00  0.0000000000000000e+00 9.7280308005411453e-01 0.0000000000000000e+00  0.0000000000000000e+00 5.5176854192795022e-01 0.0000000000000000e+00  0.0000000000000000e+00 -7.1281999402176788e-01 0.0000000000000000e+00  0.0000000000000000e+00 -8.7990151319956367e-01 0.0000000000000000e+00  0.0000000000000000e+00 2.7903732566117256e-01 0.0000000000000000e+00  0.0000000000000000e+00 2.5869511810281309e-01 0.0000000000000000e+00  0.0000000000000000e+00 -8.8838273910845789e-01 0.0000000000000000e+00  0.0000000000000000e+00 -6.9762669551877443e-01 0.0000000000000000e+00  0.0000000000000000e+00 5.6825430048035219e-01 0.0000000000000000e+00  0.0000000000000000e+00 1.0016476126949572e+00 0.0000000000000000e+00  0.0000000000000000e+00 -1.0367239967988418e-01 0.0000000000000000e+00  0.0000000000000000e+00 -1.0305493961685182e+00 0.0000000000000000e+00  0.0000000000000000e+00 -4.0312202444637513e-01 0.0000000000000000e+00  0.0000000000000000e+00 8.3048830469534685e-01 0.0000000000000000e+00  0.0000000000000000e+00 8.1956872928492286e-01 0.0000000000000000e+00  0.0000000000000000e+00 -4.2805917517911030e-01 0.0000000000000000e+00  0.0000000000000000e+00 -1.0547847177248391e+00 0.0000000000000000e+00  0.0000000000000000e+00 -5.4388214887204134e-02 0.0000000000000000e+00  0.0000000000000000e+00 9.7271665714527700e-01 0.0000000000000000e+00  0.0000000000000000e+00 5.5176222687844978e-01 0.0000000000000000e+00  0.0000000000000000e+00 -7.1283129044175242e-01 0.0000000000000000e+00  0.0000000000000000e+00 -8.7990151319956023e-01 0.0000000000000000e+00  0.0000000000000000e+00 2.7903732566117245e-01 0.0000000000000000e+00  0.0000000000000000e+00 2.5932949379965642e-01 0.0000000000000000e+00  0.0000000000000000e+00 -8.8838273910845678e-01 0.0000000000000000e+00  0.0000000000000000e+00 -6.9937299422610155e-01 0.0000000000000000e+00  0.0000000000000000e+00 5.6716704445010735e-01 0.0000000000000000e+00  0.0000000000000000e+00 1.0028946423684397e+00 0.0000000000000000e+00  0.0000000000000000e+00 -1.0371757716878505e-01 0.0000000000000000e+00  0.0000000000000000e+00 -1.0304569179280070e+00 0.0000000000000000e+00  0.0000000000000000e+00 -4.0311573407408541e-01 0.0000000000000000e+00  0.0000000000000000e+00 8.3052601131540371e-01 0.0000000000000000e+00  0.0000000000000000e+00 8.2052740050777229e-01 0.0000000000000000e+00  0.0000000000000000e+00 -4.2979875986583072e-01 0.0000000000000000e+00  0.0000000000000000e+00 -1.0508735013994297e+00 0.0000000000000000e+00  0.0000000000000000e+00 -5.7514586124143341e-02 0.0000000000000000e+00  0.0000000000000000e+00 9.7766444359438487e-01 0.0000000000000000e+00  0.0000000000000000e+00 5.5176854192795344e-01 0.0000000000000000e+00  0.0000000000000000e+00 -7.1281999402177210e-01 0.0000000000000000e+00  0.0000000000000000e+00 -8.7990151319956023e-01 0.0000000000000000e+00  0.0000000000000000e+00 2.7671227401025644e-01 0.0000000000000000e+00  1.7911419601097711e-02 2.4689922741215423e-01 -1.4689607548060646e-02  0.0000000000000000e+00 -8.8838273910845833e-01 0.0000000000000000e+00  -9.0451697709781342e-03 -7.0599065453740817e-01 -6.2604455243845392e-03  0.0000000000000000e+00 5.6716704445010735e-01 0.0000000000000000e+00  0.0000000000000000e+00 1.0028946423684384e+00 0.0000000000000000e+00  0.0000000000000000e+00 -1.0375720328344173e-01 0.0000000000000000e+00  0.0000000000000000e+00 -1.0303760160928142e+00 0.0000000000000000e+00  0.0000000000000000e+00 -4.2832947744231153e-01 0.0000000000000000e+00  0.0000000000000000e+00 8.2883895487213166e-01 0.0000000000000000e+00  0.0000000000000000e+00 8.1679500062404342e-01 0.0000000000000000e+00  0.0000000000000000e+00 -4.3498050820396961e-01 0.0000000000000000e+00  0.0000000000000000e+00 -9.9123820084732184e-01 0.0000000000000000e+00  0.0000000000000000e+00 -1.2329044044592508e-01 0.0000000000000000e+00  0.0000000000000000e+00 9.7274407343262592e-01 0.0000000000000000e+00  0.0000000000000000e+00 5.5176222687844978e-01 0.0000000000000000e+00  0.0000000000000000e+00 -7.1283129044175242e-01 0.0000000000000000e+00  0.0000000000000000e+00 -8.7990151319956367e-01 0.0000000000000000e+00  0.0000000000000000e+00 2.7671227401025955e-01 0.0000000000000000e+00  7.5836312454770349e-02 1.0000000000000004e+00 -5.5511151231257827e-17  5.6632315831785240e-02 1.0000000000000002e+00 -5.5511151231257827e-17  -7.7569996525620938e-02 1.0000000000000000e+00 -4.4408920985006262e-16  -1.9830145447435554e-01 1.0000000000000004e+00 4.4408920985006262e-16  1.3983561005782730e-01 1.0000000000000000e+00 4.4408920985006262e-16  1.2486127740925002e-02 9.9999999999999989e-01 5.5511151231257827e-17  5.1952915627348661e-02 9.9999999999999989e-01 -5.5511151231257827e-17  -9.0031449770215433e-02 1.0000000000000000e+00 2.2204460492503131e-16  1.0542716812625808e-01 1.0238206798656222e+00 4.9535937768912491e-02  1.2374926884722603e-01 1.0000000000000002e+00 -6.6613381477509392e-16  -9.0581787509729450e-02 1.0000000000000007e+00 1.1102230246251565e-16  -8.0620173657662386e-02 1.1037047661138559e+00 -2.6743936548378544e-01  -1.1295875700334909e-01 1.0000000000000002e+00 6.9388939039072284e-17  -3.3627807267147231e-02 1.2125750716402885e+00 7.5646899507679166e-02  8.6238386988598648e-02 1.0000000000000000e+00 3.4694469519536142e-17  8.3330039689121033e-02 1.0000000000000002e+00 5.5511151231257827e-17  1.5819308817080824e-02 1.0000000000000004e+00 8.3266726846886741e-17  9.4149236180269061e-03 1.0000000000000004e+00 -6.9388939039072284e-18  -1.5761252777256540e-02 1.0000000000000002e+00 -5.5511151231257827e-17  -4.3598697675938797e-02 1.0000000000000002e+00 -1.1102230246251565e-16  -4.3661142136720510e-02 1.0000000000000004e+00 -1.6653345369377348e-16  -4.5152099921936723e-02 1.0000000000000002e+00 2.2204460492503131e-16  1.2056628351970167e-01 1.0000000000000002e+00 2.2204460492503131e-16  4.9526363727441462e-03 1.1760931267765009e+00 2.8545190098928329e-03  -7.0339941910781328e-02 1.0000000000000000e+00 -1.1102230246251565e-16  1.4351355637872182e-01 1.0000000000000002e+00 -1.1102230246251565e-16  -9.0542214215148270e-02 1.0000000000000004e+00 1.1102230246251565e-16  -7.8203156445411037e-02 1.0000000000000000e+00 4.4408920985006262e-16  -1.8857333137721560e-02 1.0000000000000004e+00 -1.1102230246251565e-16  -8.4744167446858532e-02 1.0000000000000002e+00 -5.5511151231257827e-17  7.2601971334271473e-02 1.0000000000000007e+00 -5.2041704279304213e-18  2.1274629259611377e-02 1.0000000000000007e+00 2.2204460492503131e-16  9.3750810053302103e-02 1.1075489121741500e+00 1.3826811174278564e-01  5.1729089559530428e-03 1.0000000000000002e+00 -1.6653345369377348e-16  1.3996660781077463e-01 1.0000000000000002e+00 -2.2204460492503131e-16  -3.3819460190656174e-03 1.0000000000000007e+00 6.9388939039072284e-18  -3.5901086722457065e-02 1.0000000000000000e+00 -2.7755575615628914e-17  5.3987615176995463e-02 1.0000000000000004e+00 2.2204460492503131e-16  9.1860923077984630e-02 1.0000000000000004e+00 2.2204460492503131e-16  1.1565678744112962e-01 1.0000000000000002e+00 -8.8817841970012523e-16  2.2995286504105955e-02 1.0000000000000000e+00 -1.1102230246251565e-16  1.4971365870652475e-01 1.0000000000000004e+00 4.4408920985006262e-16  1.9627586890242504e-01 1.0000000000000004e+00 3.3306690738754696e-16  8.8403030499888180e-02 9.9999999999999989e-01 6.9388939039072284e-18  -8.6109064233426957e-02 9.9999999999999978e-01 -1.6653345369377348e-16  -9.0177751562667885e-02 1.0000000000000000e+00 -1.1102230246251565e-16  -1.8247351522954515e-03 1.0145808094571800e+00 -3.1377504687652574e-02  2.0893565590387693e-02 9.9466968870828065e-01 -8.5518285071668032e-02  -8.1246164047186875e-02 1.0021018599171172e+00 -3.9083829808119197e-02  1.1183811457785167e-01 1.0000000000000004e+00 6.6613381477509392e-16  4.3697109177145421e-02 1.0000000000000000e+00 -4.1633363423443370e-17  1.1157656175879282e-01 1.0000000000000000e+00 -1.1102230246251565e-16  1.0948752704455883e-01 1.0000000000000004e+00 -2.2204460492503131e-16  -5.6057960046936695e-02 1.0000000000000000e+00 2.7755575615628914e-17  -1.4096462754529704e-01 1.0000000000000004e+00 -4.4408920985006262e-16  -1.3801060108030883e-01 1.0000000000000000e+00 -3.3306690738754696e-16  -5.4993276699166926e-02 1.0000000000000000e+00 -1.1102230246251565e-16  5.0233629182962897e-04 1.2836332668015715e+00 2