<?xml version="1.0"?>
<VTKFile type="UnstructuredGrid"  version="0.1"  >
<UnstructuredGrid>
<Piece  NumberOfPoints="1034" NumberOfCells="4094">
<Points>
<DataArray  type="Float64"  NumberOfComponents="3"  format="ascii">0 0 0  0 0 40  0 40 0  0 40 40  40 0 0  40 0 40  40 40 0  40 40 40  0 0 4.444444444444445  0 0 8.888888888888889  0 0 13.33333333333333  0 0 17.77777777777778  0 0 22.22222222222222  0 0 26.66666666666666  0 0 31.11111111111111  0 0 35.55555555555556  0 4.444444444444445 0  0 8.888888888888889 0  0 13.33333333333333 0  0 17.77777777777778 0  0 22.22222222222222 0  0 26.66666666666666 0  0 31.11111111111111 0  0 35.55555555555556 0  0 40 4.444444444444445  0 40 8.888888888888889  0 40 13.33333333333333  0 40 17.77777777777778  0 40 22.22222222222222  0 40 26.66666666666666  0 40 31.11111111111111  0 40 35.55555555555556  0 4.444444444444445 40  0 8.888888888888889 40  0 13.33333333333333 40  0 17.77777777777778 40  0 22.22222222222222 40  0 26.66666666666666 40  0 31.11111111111111 40  0 35.55555555555556 40  40 0 4.444444444444445  40 0 8.888888888888889  40 0 13.33333333333333  40 0 17.77777777777778  40 0 22.22222222222222  40 0 26.66666666666666  40 0 31.11111111111111  40 0 35.55555555555556  40 4.444444444444445 0  40 8.888888888888889 0  40 13.33333333333333 0  40 17.77777777777778 0  40 22.22222222222222 0  40 26.66666666666666 0  40 31.11111111111111 0  40 35.55555555555556 0  40 40 4.444444444444445  40 40 8.888888888888889  40 40 13.33333333333333  40 40 17.77777777777778  40 40 22.22222222222222  40 40 26.66666666666666  40 40 31.11111111111111  40 40 35.55555555555556  40 4.444444444444445 40  40 8.888888888888889 40  40 13.33333333333333 40  40 17.77777777777778 40  40 22.22222222222222 40  40 26.66666666666666 40  40 31.11111111111111 40  40 35.55555555555556 40  4.444444444444445 0 0  8.888888888888889 0 0  13.33333333333333 0 0  17.77777777777778 0 0  22.22222222222222 0 0  26.66666666666666 0 0  31.11111111111111 0 0  35.55555555555556 0 0  4.444444444444445 0 40  8.888888888888889 0 40  13.33333333333333 0 40  17.77777777777778 0 40  22.22222222222222 0 40  26.66666666666666 0 40  31.11111111111111 0 40  35.55555555555556 0 40  4.444444444444445 40 0  8.888888888888889 40 0  13.33333333333333 40 0  17.77777777777778 40 0  22.22222222222222 40 0  26.66666666666666 40 0  31.11111111111111 40 0  35.55555555555556 40 0  4.444444444444445 40 40  8.888888888888889 40 40  13.33333333333333 40 40  17.77777777777778 40 40  22.22222222222222 40 40  26.66666666666666 40 40  31.11111111111111 40 40  35.55555555555556 40 40  0 20.12153196294153 19.94388663427991  0 11.66922281298702 12.20262277745694  0 28.33333333333333 11.66666666666668  0 11.73227771988998 28.38523412753934  0 28.33333333333334 28.33333333333334  0 8.5978835978836 20.00000000000001  0 19.63150672601893 31.1644320687955  0 20.5875605305763 8.760768901547721  0 31.24615647910399 20.60636652113914  0 6.688034188034192 6.688034188034192  0 33.31196581196581 6.688034188034188  0 6.688034188034182 33.31196581196581  0 33.31196581196581 33.31196581196581  0 25.7010582010582 17.36772486772489  0 17.36772486772488 14.2989417989418  0 14.61172998483693 22.96748142918793  0 22.63227513227515 25.70105820105821  0 6.025921802091437 14.17554973831356  0 13.95920708898147 33.77287727741304  0 26.13681408259054 6.180904409589432  0 14.04700933763642 6.245925871582417  0 33.76099950906929 14.06581532819924  0 33.79393164538953 26.27951366569969  0 6.239000490930714 25.93418467180076  0 25.79435328808051 33.8093915821728  0 23.09114653482101 13.01320666704744  0 12.75510142223186 16.79919952265073  0 26.98794756306119 23.0942808665815  0 17.4182554355948 26.86933214846211  0 3.900686458239344 19.99527062578448  0 20 35.98823768823768  0 20 4.011762311762308  0 35.9882376882377 20  0 10.94517085982592 36.20742713788237  0 29.06854645039864 3.785970245975122  0 3.76382987347541 10.97607695258765  0 29.01962347975436 36.21264346713377  0 10.85578576455582 3.813233272703442  0 3.81224393261034 29.14152766536377  0 36.19246065829255 29.19086037877791  0 36.18775606738965 10.85847233463622  0 29.84208470694566 15.81285822826364  0 15.72790230015934 10.21447916408795  0 10.21451868569759 24.43780247873317  0 24.20824880135558 29.77766506847407  0 23.90346261372918 20.96433652526563  0 16.43671928996441 19.08341005835686  0 20.9643365252656 16.09653738627085  0 15.24006229155857 30.0432120324146  0 3.808406440310077 3.808406440310077  0 3.54179511104243 36.45820488895757  0 36.19159355968992 3.808406440310073  0 36.19159355968993 36.19159355968993  0 31.73637729865377 11.16939169236002  0 10.30437772123545 8.050323133465415  0 31.88080426537769 29.37738075454098  0 8.283991775657316 28.88103522450712  0 28.98212436321889 7.924503408360157  0 7.92450340836016 11.01787563678111  0 28.82207469661817 31.88137759970909  0 11.1414573206579 31.76695860195371  0 19.52179132650053 23.67900915084877  0 25.09564624076792 9.711220588443938  0 9.250720454192164 16.09874432747481  0 30.25852560290995 25.17563142601858  0 15.59331303171452 36.78948303886367  0 15.58239058558278 3.086113291180599  0 36.79020778748114 24.4513003008194  0 24.39352538975966 36.92079097698202  0 2.903892249716104 15.57702209525155  0 2.986670463413295 24.42368388273533  0 24.41975107326126 3.204228755286323  0 36.9145597292909 15.58421818427693  0 33.03796990361536 37.14324056775791  0 33.04775449774421 2.856482174863876  0 37.13920400598965 33.07221728342006  0 6.901666698447174 37.19551956776115  0 2.852054100363936 6.96117018285305  0 6.937111945246684 2.861934780209542  0 37.13826308780908 6.937649259262763  0 2.847436377832145 33.03310891122  0 14.05685720684507 26.21940909771171  0 12.00084133307032 20.11967152826101  0 27.8786316068115 19.79931663553949  0 19.75912062916261 12.17429084127324  0 33.59177031471453 17.33418177259702  0 17.4074384392934 6.385938747276649  0 33.61541184062446 23.30256238273536  0 22.52553735622054 33.63574790223075  0 6.347133661154563 22.66764364366666  0 17.09915761208196 33.59265659943979  0 23.2479543854392 6.373776993325944  0 26.29554267388331 13.81474472972427  0 14.12767111107318 13.8264480860145  0 26.18443970405961 26.29745082475471  0 20.52713807241857 27.97366111538948  0 6.13582091242453 17.16931735736488  40 20.00000000000001 20.00000000000001  40 11.58843748567272 11.74197325280237  40 28.33333333333333 11.66666666666666  40 11.74197325280236 28.41156251432729  40 28.67590172588 27.73972699083481  40 19.63150672601893 31.1644320687955  40 31.4021164021164 20  40 8.835567931204494 19.63150672601893  40 20.58756053057631 8.760768901547717  40 33.31196581196581 6.688034188034189  40 6.688034188034192 6.688034188034192  40 6.688034188034185 33.31196581196581  40 33.31196581196582 33.31196581196582  40 14.2989417989418 22.63227513227514  40 17.36772486772488 14.2989417989418  40 25.7010582010582 17.36772486772487  40 22.63227513227514 25.70105820105821  40 6.227122722586967 13.95920708898147  40 13.95920708898147 33.77287727741304  40 14.04700933763642 6.245925871582417  40 33.75407412841758 14.04700933763643  40 26.13681408259054 6.180904409589429  40 6.245925871582418 25.95299066236358  40 33.0700788317196 26.26257936913544  40 25.79435328808051 33.80939158217281  40 13.21050704337663 17.49974227629108  40 23.09114653482101 13.01320666704743  40 17.82534438351765 26.77576742071148  40 27.24489857776817 23.20080047734928  40 36.09931354176065 20.00472937421552  40 20 35.98823768823767  40 4.011762311762314 20  40 20 4.01176231176231  40 36.08905311348256 29.18844119355444  40 36.18676672729655 10.85578576455582  40 29.06854645039864 3.78597024597512  40 3.792572862117628 10.94517085982592  40 10.85578576455582 3.813233272703442  40 3.81323327270344 29.14421423544417  40 10.94517085982592 36.20742713788237  40 29.01962347975435 36.21264346713377  40 15.79175119864446 10.22233493152594  40 10.22233493152593 24.20824880135556  40 29.87601831969404 15.62859815615321  40 24.20824880135556 29.77766506847407  40 23.90346261372919 20.96433652526562  40 20.9674186192755 16.20613608167843  40 9.895735017381018 15.20228585479844  40 15.14145491884748 30.27579225507515  40 3.808406440310077 3.808406440310077  40 3.718335045287217 36.28166495471278  40 36.45820488895757 3.541795111042428  40 36.19159355968993 36.19159355968993  40 31.94967686653459 29.69562227876454  40 11.1492535638173 8.288229525571577  40 31.74071378065436 11.13509958690107  40 8.288229525571573 28.85074643618271  40 8.223525973268302 11.13748346166899  40 28.82662832892847 31.75783586655763  40 28.98212436321888 7.924503408360154  40 11.07372733859882 31.93751971094319  40 16.82675863023536 18.27526419509169  40 17.75826421638857 22.98879464912815  40 25.09564624076792 9.711220588443929  40 30.74419421893549 23.51933540693949  40 37.01284880767848 15.57501068962599  40 15.59331303171452 36.78948303886367  40 3.086113291180602 24.41760941441722  40 15.58239058558278 3.0861132911806  40 36.52158243103573 24.46241979448018  40 24.39352538975966 36.92079097698202  40 3.21051696113633 15.59331303171452  40 24.41975107326126 3.204228755286324  40 33.03796990361536 37.14324056775791  40 37.10037586742861 33.00172351106615  40 37.15242228786883 6.966507293054227  40 6.936974685296132 37.1602115809122  40 2.85780269809238 6.954988964300705  40 2.843920501204968 33.08090233375789  40 6.937111945246684 2.861934780209542  40 33.10107676359774 2.803159909010347  40 27.99915866692968 19.88032847173898  40 14.00347979773868 14.27319470691251  40 14.17927027068079 26.03523286746186  40 19.76399898138529 12.18285166218035  40 22.52553735622053 33.63574790223075  40 6.394372910245504 22.60840016867702  40 6.398621550531007 17.09376097825908  40 17.41395363301637 6.386740356198892  40 33.66134908331806 17.33707974579098  40 23.2479543854392 6.373776993325942  40 17.0850708445518 33.62588234553415  40 11.8379373545353 20.4724937129273  40 26.29900528742907 13.79594268154972  40 20.69182682074964 
[...]
<PointData  Vectors="f_30"> 
<DataArray  type="Float64"  Name="f_30"  NumberOfComponents="3" format="ascii">2.1079242898320144e-01 1.2107924289832015e+00 -2.1079242898320139e-01  0.0000000000000000e+00 1.0000000000000002e+00 0.0000000000000000e+00  -4.1061850316958370e-01 9.9999999999999989e-01 -4.4408920985006262e-16  0.0000000000000000e+00 1.3877452968491575e+00 0.0000000000000000e+00  -3.9387493742792612e-01 9.9984864061415357e-01 4.4408920985006262e-16  0.0000000000000000e+00 9.9984864061415413e-01 0.0000000000000000e+00  0.0000000000000000e+00 9.9984864061415391e-01 0.0000000000000000e+00  2.1452291694289211e-01 1.2143715575570457e+00 -2.1452291694289211e-01  0.0000000000000000e+00 1.0000000000000004e+00 0.0000000000000000e+00  0.0000000000000000e+00 9.9999999999999978e-01 0.0000000000000000e+00  0.0000000000000000e+00 1.0000000000000004e+00 0.0000000000000000e+00  0.0000000000000000e+00 9.9999999999999956e-01 0.0000000000000000e+00  0.0000000000000000e+00 1.0000000000000004e+00 0.0000000000000000e+00  0.0000000000000000e+00 9.9999999999999978e-01 0.0000000000000000e+00  0.0000000000000000e+00 1.0000000000000004e+00 0.0000000000000000e+00  0.0000000000000000e+00 9.9999999999999978e-01 0.0000000000000000e+00  2.5260270967721010e-01 1.0000000000000000e+00 4.4408920985006262e-16  -1.9458263230619699e-01 1.0000000000000013e+00 4.4408920985006262e-15  2.3997991592279444e-01 1.0000000000000000e+00 2.2204460492503131e-16  -2.3196122800221253e-01 1.0000000000000013e+00 4.2188474935755949e-15  2.2932889907971687e-01 1.0000000000000000e+00 2.2204460492503131e-16  -2.3493524306750424e-01 1.0000000000000013e+00 4.2188474935755949e-15  1.9767961904188514e-01 1.0000000000000000e+00 0.0000000000000000e+00  -2.4834535788438639e-01 1.0000000000000013e+00 4.6629367034256575e-15  0.0000000000000000e+00 1.0000000000000007e+00 0.0000000000000000e+00  0.0000000000000000e+00 9.9999999999999978e-01 0.0000000000000000e+00  0.0000000000000000e+00 1.0000000000000004e+00 0.0000000000000000e+00  0.0000000000000000e+00 9.9999999999999978e-01 0.0000000000000000e+00  0.0000000000000000e+00 1.0000000000000004e+00 0.0000000000000000e+00  0.0000000000000000e+00 9.9999999999999956e-01 0.0000000000000000e+00  0.0000000000000000e+00 1.0000000000000000e+00 0.0000000000000000e+00  0.0000000000000000e+00 9.9999999999999944e-01 0.0000000000000000e+00  2.5326203917872203e-01 1.0000000000000000e+00 -2.2204460492503131e-16  -1.9383657776369767e-01 1.0000000000000013e+00 -4.2188474935755949e-15  2.3721568493699330e-01 1.0000000000000000e+00 -3.3306690738754696e-16  -2.2658827822355665e-01 1.0000000000000013e+00 -4.4408920985006262e-15  2.3317051189612392e-01 1.0000000000000000e+00 -2.2204460492503131e-16  -2.3841073069598329e-01 1.0000000000000013e+00 -3.9968028886505635e-15  1.9814331618919145e-01 1.0000000000000000e+00 -2.2204460492503131e-16  -2.4439545815619645e-01 1.0000000000000013e+00 -4.6629367034256575e-15  0.0000000000000000e+00 9.9984864061415402e-01 0.0000000000000000e+00  0.0000000000000000e+00 9.9984864061415335e-01 0.0000000000000000e+00  0.0000000000000000e+00 9.9984864061415402e-01 0.0000000000000000e+00  -2.7755575615628914e-16 9.9984864061415368e-01 -4.4408920985006262e-16  0.0000000000000000e+00 9.9984864061415391e-01 0.0000000000000000e+00  0.0000000000000000e+00 9.9984864061415324e-01 0.0000000000000000e+00  0.0000000000000000e+00 9.9984864061415413e-01 0.0000000000000000e+00  0.0000000000000000e+00 9.9984864061415346e-01 0.0000000000000000e+00  -2.5623315812231540e-01 9.9984864061415379e-01 5.5511151231257827e-17  1.9530754663328675e-01 9.9984864061415490e-01 4.4408920985006262e-15  -2.3353387509035917e-01 9.9984864061415357e-01 1.1102230246251565e-16  2.2948027403388549e-01 9.9984864061415468e-01 4.2188474935755949e-15  -2.4793354325540040e-01 9.9984864061415346e-01 3.3306690738754696e-16  2.4395470470935998e-01 9.9984864061415479e-01 4.2188474935755949e-15  -1.9396920911324511e-01 9.9984864061415346e-01 3.3306690738754696e-16  2.6201287048019539e-01 9.9984864061415479e-01 4.8849813083506888e-15  1.1102230246251565e-16 9.9984864061415357e-01 -3.3306690738754696e-16  0.0000000000000000e+00 9.9984864061415313e-01 0.0000000000000000e+00  0.0000000000000000e+00 9.9984864061415413e-01 0.0000000000000000e+00  0.0000000000000000e+00 9.9984864061415346e-01 0.0000000000000000e+00  0.0000000000000000e+00 9.9984864061415402e-01 0.0000000000000000e+00  0.0000000000000000e+00 9.9984864061415313e-01 0.0000000000000000e+00  0.0000000000000000e+00 9.9984864061415391e-01 0.0000000000000000e+00  0.0000000000000000e+00 9.9984864061415324e-01 0.0000000000000000e+00  -2.5293929599781151e-01 9.9984864061415357e-01 -2.2204460492503131e-16  1.9974758177999585e-01 9.9984864061415490e-01 -4.4408920985006262e-15  -2.3844678740217717e-01 9.9984864061415357e-01 -4.4408920985006262e-16  2.3992262178578394e-01 9.9984864061415468e-01 -4.2188474935755949e-15  -2.2952207797396684e-01 9.9984864061415368e-01 -2.2204460492503131e-16  2.4028708528796283e-01 9.9984864061415479e-01 -4.2188474935755949e-15  -1.9610815146965532e-01 9.9984864061415357e-01 -2.2204460492503131e-16  2.5623002074108814e-01 9.9984864061415490e-01 -4.6629367034256575e-15  0.0000000000000000e+00 -1.2030399939206862e+00 0.0000000000000000e+00  0.0000000000000000e+00 8.4288286168928861e-01 0.0000000000000000e+00  0.0000000000000000e+00 -6.8863244275869895e-01 0.0000000000000000e+00  0.0000000000000000e+00 1.2420539722545410e-01 0.0000000000000000e+00  0.0000000000000000e+00 1.0339106047612279e-01 0.0000000000000000e+00  0.0000000000000000e+00 -6.7107053819471929e-01 0.0000000000000000e+00  0.0000000000000000e+00 8.3061817494190926e-01 0.0000000000000000e+00  0.0000000000000000e+00 -1.1902327931810648e+00 0.0000000000000000e+00  0.0000000000000000e+00 -1.2012116809781133e+00 0.0000000000000000e+00  0.0000000000000000e+00 8.4329446260987195e-01 0.0000000000000000e+00  0.0000000000000000e+00 -6.8245965057083646e-01 0.0000000000000000e+00  0.0000000000000000e+00 1.2101927882306318e-01 0.0000000000000000e+00  0.0000000000000000e+00 1.0587806938201771e-01 0.0000000000000000e+00  0.0000000000000000e+00 -6.7591927532482687e-01 0.0000000000000000e+00  0.0000000000000000e+00 8.2801985566055880e-01 0.0000000000000000e+00  0.0000000000000000e+00 -1.2026917321978794e+00 0.0000000000000000e+00  0.0000000000000000e+00 -1.2030130636913146e+00 0.0000000000000000e+00  0.0000000000000000e+00 8.4288893614743299e-01 0.0000000000000000e+00  0.0000000000000000e+00 -6.9065822150685818e-01 0.0000000000000000e+00  0.0000000000000000e+00 1.2521532574702166e-01 0.0000000000000000e+00  0.0000000000000000e+00 1.0587806938201771e-01 0.0000000000000000e+00  0.0000000000000000e+00 -6.7591927532482665e-01 0.0000000000000000e+00  0.0000000000000000e+00 8.2801985566055902e-01 0.0000000000000000e+00  0.0000000000000000e+00 -1.2026917321978794e+00 0.0000000000000000e+00  0.0000000000000000e+00 -1.2088280315545883e+00 0.0000000000000000e+00  0.0000000000000000e+00 8.4156947632820311e-01 0.0000000000000000e+00  0.0000000000000000e+00 -6.8863244275869906e-01 0.0000000000000000e+00  0.0000000000000000e+00 1.2420539722545410e-01 0.0000000000000000e+00  0.0000000000000000e+00 1.0031260536240361e-01 0.0000000000000000e+00  0.0000000000000000e+00 -4.8526466816753538e-01 0.0000000000000000e+00  0.0000000000000000e+00 8.2944547324222095e-01 0.0000000000000000e+00  0.0000000000000000e+00 -1.1959056221613729e+00 0.0000000000000000e+00  4.1008946440336080e-01 1.0000000000000000e+00 -1.1102230246251565e-16  4.9340008409411953e-02 1.0000000000000000e+00 3.3306690738754696e-16  2.0907895954881156e-01 9.9999999999999978e-01 -8.3266726846886741e-17  2.2968800976344288e-02 9.9999999999999978e-01 -5.5511151231257827e-17  -1.7422840293745571e-02 1.2773621769426327e+00 -2.9275845365439768e-01  1.5547542238639805e-01 1.0000000000000004e+00 5.5511151231257827e-17  -3.3053344681228564e-01 1.0000000000000007e+00 -2.2204460492503131e-16  -1.9195153469175374e-01 1.0000000000000002e+00 0.0000000000000000e+00  2.9186752568157825e-01 9.7627772594723461e-01 -1.8551972462497762e-01  2.2117107175396622e-01 1.0000000000000002e+00 4.4408920985006262e-16  3.0025032570339155e-01 1.0000000000000004e+00 -4.4408920985006262e-16  -2.5865463353755036e-01 1.0000000000000007e+00 -4.4408920985006262e-16  3.6493270075234063e-02 9.9999999999999989e-01 8.3266726846886741e-17  -2.0773273731123454e-01 1.0000000000000002e+00 0.0000000000000000e+00  8.3379685146659138e-02 1.0000000000000004e+00 -5.5511151231257827e-17  7.0354201886934503e-02 1.0000000000000000e+00 2.2204460492503131e-16  -1.6273905766010083e-01 1.2468183305178002e+00 2.2863053257055410e-01  -1.5816160109354144e-01 1.4061057441623714e+00 -6.8095514815083202e-01  -1.2887696201246912e-01 9.9999999999999989e-01 2.2204460492503131e-16  5.7146267309428322e-01 1.0000000000000004e+00 1.1102230246251565e-16  2.8112694269414196e-01 1.0000000000000002e+00 2.2204460492503131e-16  1.5145602016677584e-01 1.0000000000000000e+00 -2.7755575615628914e-17  1.9571155465311213e-01 1.0681052899149386e+00 -2.1812095967741441e-01  -3.2388246986534489e-02 1.0657762308229579e+00 1.7475121237829583e-01  3.7341781650673533e-02 1.0000000000000000e+00 -1.1102230246251565e-16  8.1263371516017480e-02 1.0000000000000016e+00 -2.2204460492503131e-16  2.7161985407873912e-01 1.0000000000000000e+00 -5.5511151231257827e-17  2.5495929764703806e-01 1.0000000000000038e+00 4.3298697960381105e-15  2.3679235429808398e-01 1.0000000000000000e+00 1.1102230246251565e-16  -1.5608886189843456e-02 1.4281419942828428e+00 -9.6592452275483548e-02  -2.2204460492503131e-15 1.0000000000000040e+00 1.7763568394002505e-15  -2.2204460492503131e-15 1.0000000000000038e+00 -1.6653345369377348e-15  -1.2178429209050645e-01 9.9182120291097209e-01 -6.3962172443724485e-02  3.8954800642576615e-03 1.0000000000000040e+00 1.7763568394002505e-15  2.4814633117620244e-01 1.0000000000000031e+00 1.5681900222830336e-15  -4.1645168624871887e-01 1.0000000000000004e+00 8.8817841970012523e-16  5.4131175706632062e-03 1.0000000000000040e+00 2.1094237467877974e-15  -2.3847304898445376e-01 1.0000000000000031e+00 2.6090241078691179e-15  -4.9591078657531595e-02 1.3724494556440403e+00 -6.5174771222563349e-02  4.2128795206363989e-01 1.0000000000000007e+00 -8.8817841970012523e-16  4.2204832571631434e-01 1.0000000000000004e+00 -8.8817841970012523e-16  -1.3009471971145087e-01 1.0000000000000027e+00 3.7747582837255322e-15  2.2360247758773294e-01 9.9999999999999811e-01 1.3322676295501878e-15  -1.4873951836957078e-01 1.2407970463525966e+00 6.3973832584736168e-01  2.8809039812458137e-02 1.0000000000000029e+00 4.4408920985006262e-15  -8.6845715424269665e-03 1.0000000000000013e+00 -1.1102230246251565e-16  -1.2748163352872594e-01 9.9999999999999822e-01 -1.3322676295501878e-15  3.1676552468371955e-01 1.0000000000000000e+00 3.3306690738754696e-15  1.3227064785058174e-01 1.0000000000000002e+00 2.6645352591003757e-15  -4.2158485796640166e-01 1.0000000000000020e+00 3.5527136788005009e-15  -3.8995891954301221e-01 9.9999999999999978e-01 -6.6613381477509392e-16  9.9466511092313192e-03 1.0000000000000044e+00 3.2751579226442118e-15  4.1693311990756360e-01 1.0000000000000000e+00 8.8817841970012523e-16  -1.5965539230828288e-01 1.0000000000000009e+00 -3.5527136788005009e-15  -1.7766053159069906e-01 1.0000000000000027e+00 -3.2474023470285829e-15  1.9506485764251918e-01 1.0000000000000022e+00 -5.5511151231257827e-16  -4.3332779838353619e-01 1.0000000000000027e+00 5.5511151231257827e-16  2.5767710328715387e-01 1.0000000000000022e+00 -2.5188184871183239e-15  4.0039162002400142e-01 1.0000000000000013e+00 2.2204460492503131e-16  -4.7053106713626763e-01 1.0000000000000009e+00 2.2204460492503131e-16  1.8336101859595422e-01 1.0000000000000022e+00 -2.2065682614424986e-15  6.9007858320318832e-02 1.0000000000000018e+00 4.4408920985006262e-16  -2.9278289432272453e-02 1.1533289564415394e+00 -8.4886727199675327e-02  4.0628818181198068e-02 1.3308520614391490e+00 -6.7830410338081182e-02  -1.8835767777668483e-01 1.5840885381622074e+00 5.3315918056774186e-02  1.3734882633852363e-03 1.0000000000000040e+00 2.2204460492503131e-15  1.1598191374183608e-03 1.0000000000000040e+00 -2.2204460492503131e-15  3.4057750500947637e-01 1.0000000000000002e+00 -6.6613381477509392e-16  2.7826965930374259e-03 1.0000000000000040e+00 2.2204460492503131e-15  6.6932735962291171e-02 1.4137527211244372e+00 -8.0773736333399487e-02  3.6980276656940453e-02 1.3676243855974139e+00 -6.4330434275210235e-02  -2.2371646635266362e-04 1.0000000000000040e+00 -2.2204460492503131e-15  3.2230333809613176e-01 1.0000000000000007e+00 -6.6613381477509392e-16  6.2836273056092740e-03 1.0000000000000038e+00 2.1094237467877974e-15  3.3265716284580638e-03 1.0000000000000040e+00 -2.1094237467877974e-15  2.8485295938934607e-01 1.0000000000000004e+00 -6.6613381477509392e-16  6.0723881396489432e-03 1.0000000000000040e+00 2.8865798640254070e-15  -2.8689382628373683e-01 1.0000000000000007e+00 4.4408920985006262e-16  1.7987266978426453e-03 1.0000000000000040e+00 -2.7755575615628914e-15  2.8815921022899982e-01 1.0000000000000007e+00 -6.6613381477509392e-16  -2.8673054613597082e-01 1.0000000000000007e+00 6.6613381477509392e-16  2.5696587426271444e-01 1.0000000000000011e+00 -2.3314683517128287e-15  3.5338453863919983e-01 1.0000000000000011e+00 -2.2204460492503131e-16  1.5842971851959309e-01 1.0000000000000013e+00 -3.8857805861880479e-15  -1.2111084823974712e-01 1.0000000000000013e+00 4.4408920985006262e-16  1.6904734937829025e-01 1.0000000000000044e+00 2.6645352591003757e-15  -6.8130624923994992e-02 1.0000000000000007e+00 -2.2204460492503131e-15  2.4832844097605566e-01 1.0000000000000031e+00 -1.3877787807814457e-16  2.1092369520947613e-01 1.0000000000000009e+00 1.8873791418627661e-15  -1.5273899761284923e-01 1.0000000000000038e+00 6.9388939039072284e-17  7.2472547385794006e-03 1.0000000000000036e+00 -3.1086244689504383e-15  -1.0789431989449011e-03 1.4689724259129511e+00 1.1224272663557688e-02  -2.7356013738273605e-01 1.0000000000000029e+00 2.7755575615628914e-16  -1.8112912528534519e-01 1.0000000000000027e+00 -2.7755575615628914e-15  1.9198597221523617e-01 1.2613119502750778e+00 -2.7581728455992449e-01  -4.5053222008186837e-03 1.2942575168574102e+00 2.7257397232555403e-01  -2.1897572368764717e-01 1.0000000000000033e+00 -9.7144514654701197e-17  -1.8307089600861892e-01 9.9984864061415346e-01 -1.1102230246251565e-16  1.0664471187850025e-02 1.4141761395530406e+00 2.0267913937325194e-01  8.1529111373028998e-02 9.9984864061415379e-01 1.1102230246251565e-16  3.0039253608237715e-01 9.9984864061415379e-01 -1.1102230246251565e-16  -4.7274947874731482e-01 9.9984864061415357e-01 2.2204460492503131e-16  2.5191994163270204e-01 9.9984864061415435e-01 -1.6653345369377348e-16  2.2908981424630009e-01 9.9984864061415357e-01 8.3266726846886741e-17  -1.6085681847736302e-01 9.9984864061415379e-01 -1.1102230246251565e-16  -2.7485948756747580e-01 9.9984864061415435e-01 -4.4408920985006262e-16  5.7935636823239633e-01 9.9984864061415379e-01 -4.4408920985006262e-16  -9.0717789621669181e-02 9.9984864061415346e-01 -3.4694469519536142e-17  2.8048372408556743e-01 9.9984864061415402e-01 -2.2204460492503131e-16  4.4376522302041949e-02 9.9984864061415402e-01 8.3266726846886741e-17  -6.9165567663113922e-02 9.9984864061415368e-01 -1.1102230246251565e-16  -3.3027031224324715e-01 9.9984864061415368e-01 -2.2204460492503131e-16  -3.6463428782883867e-01 9.9984864061415391e-01 3.3306690738754696e-16  -1.1539920182945668e-02 9.9984864061415379e-01 -1.1102230246251565e-16  2.3191149572664402e-01 9.9984864061415357e-01 -2.2204460492503131e-16  3.4545742720046929e-02 9.9984864061415402e-01 2.2204460492503131e-16  -3.1545881430711797e-03 1.1523466131824622e+00 2.1637422997426159e-01  -1.8263048395581166e-01 9.9984864061415368e-01 -6.9388939039072284e-18  -2.2936124331200158e-01 9.9984864061415424e-01 2.2204460492503131e-16  8.2534887856618805e-02 1.6338856518520068e+00 -5.3336241081930920e-03  1.7395435656572006e-02 9.9984864061415379e-01 -1.1102230246251565e-16  3.7047724310235119e-01 9.9984864061415424e-01 1.6653345369377348e-16  -1.8925715194431766e-01 9.9984864061415235e-01 4.9960036108132044e-16  2.8773442398587229e-01 9.9984864061415413e-01 2.2204460492503131e-16  5.4968129769192381e-02 9.9984864061415479e-01 0.0000000000000000e+00  -1.9620447816607295e-01 9.9984864061415357e-01 -8.3266726846886741e-17  -4.4034402592703270e-01 9.9984864061415402e-01 -8.8817841970012523e-16  -2.7567112651655562e-01 9.9984864061415368e-01 -2.2204460492503131e-16  4.5290976883060630e-01 9.9984864061415624e-01 -2.6090241078691179e-15  -8.8482089792579516e-02 9.9984864061415346e-01 -4.4408920985006262e-16  3.5414446858829884e-01 9.9984864061415157e-01 -2.2204460492503131e-15  -4.2939899103948109e-01 9.9984864061415402e-01 -8.8817841970012523e-16  1.0107686972112551e-01 9.9984864061415601e-01 -2.0747292772682613e-15  4.2682815506690930e-01 9.9984864061415402e-01 8.8817841970012523e-16  -2.8526248881823657e-01 9.9984864061415224e-01 3.9968028886505635e-15  4.2963317359819353e-01 9.9984864061415402e-01 6.6613381477509392e-16  1.5324593241714424e-02 9.9984864061415757e-01 1.7763568394002505e-15  2.4424906541753444e-15 9.9984864061415757e-01 1.8873791418627661e-15  -1.0215283995578447e-01 9.9984864061415180e-01 1.2212453270876722e-15  6.1756290983358414e-02 9.9984864061415535e-01 5.5511151231257827e-17  9.0061287065753504e-02 9.9984864061415624e-01 3.3306690738754696e-15  1.6153930350804505e-01 9.9984864061415157e-01 1.2212453270876722e-15  2.2028412276061837e-01 9.9984864061415446e-01 -2.2204460492503131e-16  5.8418118703924930e-02 9.9984864061415557e-01 5.5511151231257827e-16  -1.5697583516853386e-01 1.3971890006102341e+00 1.9436943579296917e-01  -9.9636802091361526e-02 1.2317770437208182e+00 -1.3455749718047827e-01  -3.2085249406590588e-01 9.9984864061415268e-01 -4.4408920985006262e-16  -1.4817951070200563e-01 1.3322730661350211e+00 -1.4942843263767647e-01  -3.9778626812967088e-01 9.9984864061415579e-01 -2.8865798640254070e-15  -2.7755575615628914e-16 9.9984864061415291e-01 -3.8857805861880479e-16  -1.0757889107089236e-01 9.9984864061415601e-01 -4.4408920985006262e-16  4.9493623127710440e-03 1.5166152287150567e+00 6.0451995541754688e-03  -3.9500780973390376e-01 9.9984864061415579e-01 4.4408920985006262e-16  -8.8953630163805808e-02 1.0447415261222717e+00 -3.1639969434175713e-02  1.0939956623651664e-01 9.9984864061415468e-01 -1.9984014443252818e-15  -7.4627852700093686e-03 1.4850668579622603e+00 8.9562630415863983e-03  9.1336160874153138e-02 9.9984864061415579e-01 3.5665914666083154e-15  -2.9073043359731710e-01 9.9984864061415446e-01 -2.2204460492503131e-16  2.0973909473450186e-01 9.9984864061415446e-01 2.2204460492503131e-16  3.1251602374743559e-01 9.9984864061415424e-01 -1.9984014443252818e-15  2.3258744809638099e-01 9.9984864061415391e-01 3.1086244689504383e-15  1.6178264844913881e-01 9.9984864061415513e-01 -3.3306690738754696e-15  -3.2154592129601145e-01 9.9984864061415424e-01 -6.6613381477509392e-16  4.8018720433891104e-03 9.9984864061415757e-01 2.1094237467877974e-15  3.2161291927186508e-01 9.9984864061415402e-01 6.6613381477509392e-16  -1.2003334070032440e-01 1.4272281783701075e+00 -2.3715874382758084e-01  -3.6769330069890849e-01 9.9984864061415379e-01 -8.8817841970012523e-16  2.7755575615628914e-15 9.9984864061415757e-01 2.1094237467877974e-15  3.6245280295687676e-01 9.9984864061415635e-01 2.6645352591003757e-15  -4.7223545677335110e-03 9.9984864061415746e-01 -2.1094237467877974e-15  2.7755575615628914e-15 9.9984864061415746e-01 2.1094237467877974e-15  -2.9511240305073660e-01 9.9984864061415402e-01 -6.6613381477509392e-16  -3.1981728920070229e-01 9.9984864061415668e-01 3.0531133177191805e-15  -1.3266221098422526e-01 1.0365524603049301e+00 -1.3446795590977956e-01  2.9174573255425262e-01 9.9984864061415424e-01 6.6613381477509392e-16  2.8971814124430040e-01 9.9984864061415446e-01 4.4408920985006262e-16  -2.9864691147489797e-03 9.9984864061415446e-01 2.2204460492503131e-1