<?xml version="1.0"?>
<VTKFile type="UnstructuredGrid"  version="0.1"  >
<UnstructuredGrid>
<Piece  NumberOfPoints="6268" NumberOfCells="29823">
<Points>
<DataArray  type="Float64"  NumberOfComponents="3"  format="ascii">0 0 0  0 0 20  0 20 0  0 20 20  20 0 0  20 0 20  20 20 0  20 20 20  0 0 1.052631578947368  0 0 2.105263157894737  0 0 3.157894736842105  0 0 4.210526315789473  0 0 5.263157894736842  0 0 6.315789473684211  0 0 7.368421052631579  0 0 8.421052631578947  0 0 9.473684210526315  0 0 10.52631578947368  0 0 11.57894736842105  0 0 12.63157894736842  0 0 13.68421052631579  0 0 14.73684210526316  0 0 15.78947368421053  0 0 16.84210526315789  0 0 17.89473684210526  0 0 18.94736842105263  0 1.052631578947368 0  0 2.105263157894737 0  0 3.157894736842105 0  0 4.210526315789473 0  0 5.263157894736842 0  0 6.315789473684211 0  0 7.368421052631579 0  0 8.421052631578947 0  0 9.473684210526315 0  0 10.52631578947368 0  0 11.57894736842105 0  0 12.63157894736842 0  0 13.68421052631579 0  0 14.73684210526316 0  0 15.78947368421053 0  0 16.84210526315789 0  0 17.89473684210526 0  0 18.94736842105263 0  0 20 1.052631578947368  0 20 2.105263157894737  0 20 3.157894736842105  0 20 4.210526315789473  0 20 5.263157894736842  0 20 6.315789473684211  0 20 7.368421052631579  0 20 8.421052631578947  0 20 9.473684210526315  0 20 10.52631578947368  0 20 11.57894736842105  0 20 12.63157894736842  0 20 13.68421052631579  0 20 14.73684210526316  0 20 15.78947368421053  0 20 16.84210526315789  0 20 17.89473684210526  0 20 18.94736842105263  0 1.052631578947368 20  0 2.105263157894737 20  0 3.157894736842105 20  0 4.210526315789473 20  0 5.263157894736842 20  0 6.315789473684211 20  0 7.368421052631579 20  0 8.421052631578947 20  0 9.473684210526315 20  0 10.52631578947368 20  0 11.57894736842105 20  0 12.63157894736842 20  0 13.68421052631579 20  0 14.73684210526316 20  0 15.78947368421053 20  0 16.84210526315789 20  0 17.89473684210526 20  0 18.94736842105263 20  20 0 1.052631578947368  20 0 2.105263157894737  20 0 3.157894736842105  20 0 4.210526315789473  20 0 5.263157894736842  20 0 6.315789473684211  20 0 7.368421052631579  20 0 8.421052631578947  20 0 9.473684210526315  20 0 10.52631578947368  20 0 11.57894736842105  20 0 12.63157894736842  20 0 13.68421052631579  20 0 14.73684210526316  20 0 15.78947368421053  20 0 16.84210526315789  20 0 17.89473684210526  20 0 18.94736842105263  20 1.052631578947368 0  20 2.105263157894737 0  20 3.157894736842105 0  20 4.210526315789473 0  20 5.263157894736842 0  20 6.315789473684211 0  20 7.368421052631579 0  20 8.421052631578947 0  20 9.473684210526315 0  20 10.52631578947368 0  20 11.57894736842105 0  20 12.63157894736842 0  20 13.68421052631579 0  20 14.73684210526316 0  20 15.78947368421053 0  20 16.84210526315789 0  20 17.89473684210526 0  20 18.94736842105263 0  20 20 1.052631578947368  20 20 2.105263157894737  20 20 3.157894736842105  20 20 4.210526315789473  20 20 5.263157894736842  20 20 6.315789473684211  20 20 7.368421052631579  20 20 8.421052631578947  20 20 9.473684210526315  20 20 10.52631578947368  20 20 11.57894736842105  20 20 12.63157894736842  20 20 13.68421052631579  20 20 14.73684210526316  20 20 15.78947368421053  20 20 16.84210526315789  20 20 17.89473684210526  20 20 18.94736842105263  20 1.052631578947368 20  20 2.105263157894737 20  20 3.157894736842105 20  20 4.210526315789473 20  20 5.263157894736842 20  20 6.315789473684211 20  20 7.368421052631579 20  20 8.421052631578947 20  20 9.473684210526315 20  20 10.52631578947368 20  20 11.57894736842105 20  20 12.63157894736842 20  20 13.68421052631579 20  20 14.73684210526316 20  20 15.78947368421053 20  20 16.84210526315789 20  20 17.89473684210526 20  20 18.94736842105263 20  1.052631578947368 0 0  2.105263157894737 0 0  3.157894736842105 0 0  4.210526315789473 0 0  5.263157894736842 0 0  6.315789473684211 0 0  7.368421052631579 0 0  8.421052631578947 0 0  9.473684210526315 0 0  10.52631578947368 0 0  11.57894736842105 0 0  12.63157894736842 0 0  13.68421052631579 0 0  14.73684210526316 0 0  15.78947368421053 0 0  16.84210526315789 0 0  17.89473684210526 0 0  18.94736842105263 0 0  1.052631578947368 0 20  2.105263157894737 0 20  3.157894736842105 0 20  4.210526315789473 0 20  5.263157894736842 0 20  6.315789473684211 0 20  7.368421052631579 0 20  8.421052631578947 0 20  9.473684210526315 0 20  10.52631578947368 0 20  11.57894736842105 0 20  12.63157894736842 0 20  13.68421052631579 0 20  14.73684210526316 0 20  15.78947368421053 0 20  16.84210526315789 0 20  17.89473684210526 0 20  18.94736842105263 0 20  1.052631578947368 20 0  2.105263157894737 20 0  3.157894736842105 20 0  4.210526315789473 20 0  5.263157894736842 20 0  6.315789473684211 20 0  7.368421052631579 20 0  8.421052631578947 20 0  9.473684210526315 20 0  10.52631578947368 20 0  11.57894736842105 20 0  12.63157894736842 20 0  13.68421052631579 20 0  14.73684210526316 20 0  15.78947368421053 20 0  16.84210526315789 20 0  17.89473684210526 20 0  18.94736842105263 20 0  1.052631578947368 20 20  2.105263157894737 20 20  3.157894736842105 20 20  4.210526315789473 20 20  5.263157894736842 20 20  6.315789473684211 20 20  7.368421052631579 20 20  8.421052631578947 20 20  9.473684210526315 20 20  10.52631578947368 20 20  11.57894736842105 20 20  12.63157894736842 20 20  13.68421052631579 20 20  14.73684210526316 20 20  15.78947368421053 20 20  16.84210526315789 20 20  17.89473684210526 20 20  18.94736842105263 20 20  0 9.942710529214628 10.0722987540878  0 14.12146062633527 14.14807555284684  0 14.11072441070714 5.803193823252208  0 5.850202429149798 14.1497975708502  0 5.835836859088907 5.884489162850935  0 15.59698388418854 9.924055317797643  0 9.999999999999998 15.62675987279884  0 9.983994902614658 4.575389824480377  0 4.373240127201152 9.999999999999996  0 16.57726845367155 16.57726845367155  0 3.551659254474841 16.63152263092509  0 16.57726845367155 3.422731546328455  0 3.422731546328453 3.422731546328453  0 12.81337993639942 11.33641763445078  0 7.218602481382949 11.26469816025383  0 11.32528020884368 6.989431537680799  0 16.93439333080768 12.79565877543615  0 3.059712444945589 12.80948158408902  0 12.80783368802827 3.17187655348174  0 7.142843575647241 16.9023093051923  0 12.78986822407285 16.98455703947364  0 3.078798845874212 7.201559946830709  0 7.201559946830711 3.078798845874213  0 16.87239712916961 7.170932981907744  0 8.355486567879039 7.494715861270758  0 10.44752866625002 12.86171078504446  0 13.33826824959588 8.811870633623455  0 6.059225308198101 8.262329165913529  0 8.170575123589007 14.06827157227773  0 11.7918769251633 14.37069160031698  0 10.71215314896847 17.75934373330346  0 10.66686764482989 2.161734834992743  0 17.78437199384686 10.68757892911135  0 2.161734834992742 10.66686764482989  0 8.008254800000257 5.35768182335327  0 17.81988555247646 5.214699722528118  0 17.5916801326799 14.70611239671145  0 5.262506794660013 2.30065788663462  0 5.158707173216764 17.79870763334972  0 14.89550423508745 2.248969009668716  0 2.257587491234085 5.139823389973293  0 2.408319867320096 14.70611239671145  0 14.89550423508745 17.75103099033127  0 12.18999891536423 5.146998341037731  0 14.84030765610221 12.07149028067449  0 5.140179396352463 12.08841702037195  0 7.925581542834823 9.331242913181867  0 18.16618411737975 18.19596183112041  0 1.753974871172147 18.18257662322943  0 18.16618411737976 1.804038168879586  0 1.804038168879588 1.833815882620242  0 14.93289572115789 7.692153332657054  0 18.0870755162218 8.775593127254309  0 8.79403533186111 18.21072910123991  0 1.889701894485456 8.803862599254224  0 8.775593127254316 1.912924483778193  0 15.8897724825429 14.84607696959468  0 15.9301033687167 5.213400988782388  0 4.114021553700182 14.84702901278001  0 5.155439506953996 4.111765671192404  0 9.719749512492246 6.263695160082682  0 4.051650863797735 5.705480127528185  0 14.32477815699629 15.95664156544736  0 14.41448633870849 4.005970261692331  0 5.548322819083015 16.06619798740984  0 9.020884947577755 11.56832466301064  0 11.81355059258398 9.811699977438888  0 9.992823517788075 8.253530217093688  0 6.11719418919726 10.00783150583434  0 12.7968034105375 13.02102883666155  0 13.03710841055889 7.137331524686709  0 4.756002961234396 7.102719383270012  0 8.295311768407169 15.62503233336125  0 18.36584131757932 16.35498296401796  0 16.36420372922035 18.39057870423371  0 1.597362031943553 16.38156211761805  0 3.662270861932786 18.38955937001457  0 16.36420372922036 1.609421295766282  0 18.36584131757933 3.645017035982038  0 3.645017035982038 1.634158682420672  0 1.609421295766277 3.635796270779645  0 11.16377224223011 11.20308990247597  0 6.964544631998039 12.9550308186192  0 12.1940327678337 18.43236529505116  0 12.1940327678337 1.567634704948839  0 1.552332423540206 12.19077207398978  0 18.4476675764598 12.19077207398978  0 14.01680075249832 10.34399301748902  0 18.42992347992837 6.914453220582491  0 6.892462122697858 18.45257560869661  0 6.914453220582494 1.570076520071633  0 1.547424391303387 6.892462122697856  0 11.53337793751318 15.98394582683129  0 8.599588447311215 3.60932809554426  0 16.42607331284924 8.585267071464697  0 3.486137132234061 8.711739513792443  0 16.35762578242483 11.3605292248967  0 11.3605292248967 3.642374217575157  0 3.642374217575155 11.36052922489669  0 6.892712399031074 6.93370477379346  0 6.723975811643418 4.425971106537476  0 9.736914587757262 14.15710473849086  0 6.902453214700603 15.15127989520431  0 13.02925282367696 15.45154616695029  0 4.366348742687099 13.35406519695566  0 15.64920569567845 13.33279152290884  0 13.58912658439817 1.357802238269735  0 1.3986170434781 13.53390524723735  0 13.58912658439818 18.64219776173027  0 18.6013829565219 13.53390524723735  0 12.01184521301672 8.402527828632333  0 9.128884578206376 16.75004188157617  0 14.75955046163593 9.081555220500784  0 15.97116343356316 6.49092345511117  0 4.817636411593839 8.744424210665379  0 8.917867553478445 12.68332422692156  0 10.79530073137632 5.4344990
[...]
<PointData  Vectors="f_26"> 
<DataArray  type="Float64"  Name="f_26"  NumberOfComponents="3" format="ascii">3.9270957983226885e-06 -8.5681755105316473e-03 -4.1501068541029140e-04  -1.0588927664273700e-03 2.1512595947417142e-03 -6.2762119889748396e-04  3.7032612900810955e-05 6.1899986078036758e-03 -1.0476916762938179e-03  7.5245079327925066e-04 4.0694353633122108e-03 7.3849255455496531e-04  1.3807908328056036e-04 2.1971851732165977e-03 -1.9547828853312585e-04  -1.1711740862526882e-03 1.2889408366410260e-02 -1.6200769193840242e-03  1.1289678504464431e-03 1.2577848796414329e-02 1.3249188612656359e-03  -1.1129295066062265e-03 9.5308229547211090e-03 -2.2044239956500898e-04  -3.4335333756044784e-03 -7.6094169056702948e-03 -2.7089764006145949e-04  -3.0076006314342530e-03 -5.1506928229845357e-03 3.3219439564371724e-04  -2.8030818677900378e-04 4.4608929938788570e-03 4.9835364932799692e-03  -1.8053653104720432e-03 1.4984272756123331e-04 -1.4702934337467320e-03  3.9007185271014147e-03 2.6835018592589778e-02 -5.4756531435509563e-04  -3.4612258141816289e-04 -3.3608954442854648e-03 1.1678586373531569e-03  1.0255702909223185e-03 1.0562952342351564e-02 -3.1267093621325619e-03  -3.0012597460241952e-03 -1.2684143839275961e-02 9.5082311947242013e-05  -1.8447380913854368e-03 -7.4664741466089375e-03 3.6287184381810351e-04  -2.4752599760246513e-03 7.4417458596101941e-04 6.9725339773108515e-04  -2.2836275881153094e-03 -8.7403714438591537e-04 -6.9541048674250246e-04  -7.4812041578657413e-04 -4.4919104631258961e-03 6.2701485996447795e-04  -5.1786775255651327e-03 4.8582229698426451e-03 7.8351880409978912e-04  -1.5878317321712909e-03 9.7655718640283389e-04 -1.6205837489311811e-03  -3.3615906737583597e-03 -4.9986917534801682e-04 9.1967134254087714e-05  -8.7316992806538065e-04 9.1401227836923042e-08 -1.9860453965805567e-03  -4.1905614400349978e-03 -5.0180288626526142e-03 1.5785230341267597e-04  -7.5857352090930486e-04 5.4002555361123243e-03 1.8400397809624899e-03  -7.7911558389849708e-04 -1.4803939810269283e-02 -1.8517020178979038e-04  -1.1833541505704211e-03 -1.0763517489101962e-02 -6.2427924116900628e-05  -9.9245866255022095e-04 1.9174272849063808e-02 1.9609110975046104e-03  1.5631105023598602e-03 -5.9417673296834478e-03 -1.8882038885940003e-04  -1.0634492709829769e-03 7.2962395258165450e-04 -1.8577012683913098e-03  -1.8283274556577006e-03 5.2634985381350089e-03 -1.6144086503190817e-03  -1.0074659234742629e-03 7.1827077008220315e-03 -1.9596827699176677e-03  -2.6085597744776156e-03 -1.1496046406172898e-02 1.2605403533410174e-03  4.1602036738701986e-04 -7.3206666769349508e-03 3.3192751939396426e-03  1.7900636038407471e-03 1.9474400900717501e-03 3.3504549128305062e-03  1.0007928006943981e-04 2.2464033708737641e-03 9.7855957810072478e-04  -1.2934981580950097e-03 -4.7636299445369080e-03 1.8853698823601082e-04  1.5810413044348056e-04 -5.8163655934657067e-03 1.0667624710142688e-03  -6.5287579802217051e-04 9.6666691481855102e-04 -1.4404321377785600e-03  -2.9448413942844854e-03 4.1649793469188279e-03 1.4091269964985160e-03  1.8172956350956907e-03 1.5599854267666299e-02 -1.0103596966774915e-03  -3.0579765031800779e-03 -2.4410930298157702e-03 -2.4513024718431651e-03  -2.0129364985739034e-03 -5.8896152966982857e-03 -4.2284819652095817e-04  2.7406282635801730e-03 1.0102574419309909e-04 1.7634821884054226e-03  5.9746440934108185e-03 -1.0122453791287801e-02 -2.2167215051167211e-03  -8.1572744685673589e-04 9.8743637544196246e-03 -4.7843301480980155e-03  8.0315935944148906e-04 3.1622646095316605e-03 1.0005882677603748e-03  1.3861195166846659e-03 -7.8097445218972498e-03 4.6494932419537832e-04  -2.4698034734555282e-04 9.6485317356915015e-04 7.7817943608973685e-04  1.0228640551709124e-03 -5.4087630553427456e-03 9.3959091596903252e-04  5.5336773144359377e-04 4.2856031552215238e-03 -1.7957803868645869e-04  6.6047958092341750e-04 1.3587925968424461e-02 1.4804977877725135e-04  3.8315086235199982e-03 4.9118946500918571e-03 1.2935902909780086e-04  5.9882068182789559e-04 -5.5584630430685136e-03 3.4675364230212261e-04  1.9295686306560460e-03 1.8592921115097734e-03 -8.9032096729339621e-04  3.0194602880939578e-03 -7.6096297985207449e-03 3.8093953090241709e-04  1.3745955190197679e-03 2.3383322293401621e-04 5.0011247309244135e-04  2.5986090200377891e-03 -5.5667629856444596e-03 7.0441382412208273e-04  1.9577422900183420e-03 -7.4673717784506863e-03 6.8602486457200365e-04  3.7631015676283528e-03 -4.9381289880927699e-03 -9.6220928678511757e-04  9.6825303471801576e-04 4.2351341039457209e-04 -1.2561634234912454e-03  1.2589810088336575e-03 7.0494899038644953e-03 1.1514760446223373e-03  3.8263384521170386e-03 3.2836712857973590e-03 -2.8819523843456901e-04  -1.8355473095032614e-03 8.1917836047899165e-04 8.3242293587483735e-04  1.1005752217896840e-03 1.0985867517527882e-02 1.3249770735533806e-03  -6.3464419326038303e-04 8.1093372734468584e-03 2.2933514347286562e-03  1.4366534175004159e-03 1.2033068048079137e-02 -1.2749842657289029e-03  6.7237676219152802e-04 2.4622983441490802e-03 4.4155077824427694e-04  -1.0914896981376334e-03 2.5582452252582229e-03 -1.5839716286491479e-03  1.2789455538827128e-03 8.6110633306318088e-03 -8.7524567692707589e-04  1.7310407052124103e-03 4.8241977241204805e-04 -3.7862049886560473e-03  -5.2055604489908772e-06 -5.7846163083344060e-03 -1.8583880099364793e-03  -8.1775960735620877e-04 -5.1448001763493680e-04 -4.7666423538469976e-04  -3.5462416866644008e-04 1.5229780521302543e-02 5.7400372217781268e-04  -4.5109728453159080e-04 1.7366335732645077e-02 1.5074023516366860e-03  -2.9152066232222963e-03 5.0226822153670225e-03 -1.1774743874724118e-03  2.2361276229164420e-03 -6.1475567825246323e-04 -2.5108775201939109e-03  -1.7038679905310098e-03 3.0368197789416890e-03 6.0385705129772739e-05  -4.4979210694975327e-04 6.0853164805197858e-03 -1.5914129279525518e-03  -5.0591305907964935e-04 8.1983493408659940e-03 1.1862057793646484e-03  -1.3210797165595298e-03 8.7223480292273701e-03 6.7269603073052584e-04  -2.2516938431008508e-03 7.3629322035165231e-03 -7.3466248370042690e-04  9.0809977158954030e-04 4.8516571705152379e-03 2.2316624034395922e-03  -2.8639005485234315e-03 9.5999242354310507e-03 6.1570941055169213e-04  6.3324707581788233e-04 6.5837434366558165e-04 -3.5687268002030891e-03  -2.1091400735045460e-03 6.6809645604781085e-03 5.1184325968867443e-04  -2.2475770660050566e-03 1.0015549309533344e-02 1.2545875958679851e-03  -4.4982799651679317e-03 1.1653926888657323e-02 -4.8538376446929986e-05  3.0371303149614539e-03 -1.1637569804891425e-02 -1.7244126959930349e-03  -6.1132903024724357e-05 4.1257623024347706e-04 -2.4852798667811308e-03  2.2412608011627250e-04 1.0545826174290129e-02 -1.7093709113271085e-04  -5.8506444849559542e-03 6.1552496986960062e-03 6.2239258347359888e-05  -9.3619680245585256e-04 6.6739172986794238e-03 3.4619878465907603e-04  -2.7662329909682363e-03 1.8467606333120619e-03 1.5201447929292994e-03  2.0073855033936089e-03 -1.0216755419067646e-03 1.9136487747521257e-03  -4.9591432469841840e-04 2.2810302517953466e-03 -1.2469383894005241e-03  -2.0685640301320576e-03 -1.5355079417016095e-03 -7.6037557647155309e-04  2.7227558806162640e-04 5.4897925202273268e-03 1.0462644903112422e-03  1.2707415158451224e-03 8.2348754900684502e-03 1.5660333301938125e-03  -3.4856509853840455e-03 1.1571143209179627e-02 1.6864287953929902e-03  2.9489769444372891e-03 1.5321464609255276e-03 -1.6423347162501391e-03  -2.9858109616621568e-03 1.1274874766952972e-02 2.1162396255856759e-03  -1.1427970878768743e-03 1.2428495116895498e-03 7.3800327709813880e-05  1.4252695974836945e-03 1.4132222666387721e-02 -5.3574384609303112e-04  1.4841944104413618e-03 4.2777798411233574e-03 2.0592627436227017e-04  1.9500407160451783e-03 1.5253955335265237e-03 8.0774990663514280e-04  -1.4790180563152391e-03 6.3629488724727991e-03 1.2501751765930129e-03  1.2161646259483354e-05 3.6476410641388375e-03 4.2444028953259765e-04  5.3800940914518723e-04 -2.1559041432689711e-03 -8.1459336499430796e-04  1.0746867704656082e-03 5.2425631445958661e-03 -1.4134032749126093e-03  1.7066846303194134e-03 2.2685685543354702e-03 -1.7067311187363970e-03  -2.5219962573986947e-03 6.0874448911789752e-03 1.3246186610761338e-03  3.2984457575503316e-03 1.1317617851392729e-02 -1.6502604538240584e-03  5.3995636381783899e-04 1.3996208936326108e-02 -2.6841162735423583e-03  4.6728478378288993e-04 8.7102461679754752e-03 -8.3208904756857944e-04  6.4322280789273561e-04 5.1351082684573347e-03 9.7633898507888596e-04  4.0800196709058363e-04 9.6900789542516512e-03 -1.1974073961113177e-03  3.7335696255352234e-03 2.7293014815151409e-02 -2.4461654499326984e-03  3.1718256138044821e-03 2.0757352049105962e-02 1.1679373242345099e-03  1.7418957391585595e-03 8.9842808705942641e-03 8.6999208017700207e-04  2.8048855387391284e-03 1.1665483688996496e-02 -2.4389055399941923e-04  5.7445201064264219e-04 1.2222664703873298e-03 -2.0274902545468562e-04  -8.6935184496594143e-05 1.2909357502031711e-02 -1.3028084835111891e-03  3.5571960336182843e-03 1.5504554284763000e-02 3.2808339977261682e-04  -1.3033001417136847e-03 -3.9920866584095428e-03 2.4091949836563468e-03  1.2378502777633540e-03 6.6871791427366052e-03 -9.4332012510366553e-05  -7.2172900151205074e-04 8.4421776161179782e-03 -1.8024741186665491e-05  2.1403168061232491e-04 4.9600327076396340e-04 1.4059222617750819e-03  -1.1216155154966103e-03 2.2505345363266656e-03 -3.0982509342103890e-03  2.4572119954485738e-03 1.0918982168173864e-02 -3.8050045019626236e-04  1.8279789204064688e-03 1.1668417529364646e-02 4.0565010301433883e-04  8.5679143272327331e-04 7.5697618924010709e-03 5.6072346139010695e-04  4.3881458486716375e-04 -2.3332742556365737e-03 -6.6639350084573884e-04  1.1003505882946521e-03 -6.5857242863391141e-03 6.2985454639886051e-04  -1.4753305259055615e-03 9.5049577322779029e-03 -3.5390667668989302e-03  -5.1800876349496795e-03 2.1198165440312802e-02 -1.5512698407316075e-03  1.7039673352215597e-03 1.0221140102738540e-03 1.7333125717220355e-03  -2.6825486147244921e-03 -8.1223925488509690e-03 -2.0742308086300642e-03  1.0736616705652254e-03 1.1184568886150496e-02 7.4607649565325404e-04  5.8294570720475154e-04 2.3644577163669995e-03 -4.2608896697853424e-05  -8.0367253423763955e-04 8.3172491045343556e-03 6.0432820614044829e-05  -5.7026836105178772e-04 -3.6949865724021473e-03 -1.1945000135253543e-03  -1.7433518075108783e-04 -7.6974253559518608e-03 1.0241442412133269e-03  6.7644542566162587e-04 5.5477206475513267e-03 1.2998415650450014e-03  -5.6327118167147411e-05 2.8066612516590747e-02 1.5529812260440747e-03  -1.2216950310716101e-04 2.8809989558061487e-03 4.7006117385999446e-04  1.3960942701894171e-03 2.3158925802681952e-02 -2.0293532021178405e-03  -1.6997623526138030e-03 1.0474527310654317e-02 1.1283847443354694e-03  9.2197385655429513e-04 5.5455041838796603e-03 9.1998928167122721e-04  -1.1378040277931245e-04 1.0857991362892895e-02 2.7748205305670406e-04  -6.2864252687736346e-04 5.6530443307000059e-03 2.2926065107940283e-05  3.5331004865226793e-03 6.4201529891684550e-01 -4.2661884559744602e-03  6.8087585699038800e-04 9.8878462806551548e-01 1.2306211177562372e-03  6.0184854826883635e-04 9.2821467434627769e-01 8.0101707992212426e-04  9.9640785282850961e-06 4.7750039695813773e-01 -8.0998532749827139e-04  5.3897139051208237e-04 -1.7158791286740466e-01 1.0894511392095564e-03  -2.3247351404280487e-04 -7.3980794341806078e-01 1.4616438075653858e-03  5.4938171644141167e-04 -1.0216421949034802e+00 -2.5855907444611789e-03  -2.4985560334717972e-04 -8.6018912916226198e-01 -1.5899563368247157e-03  1.2080374823002493e-03 -3.3122746686682947e-01 1.4867945932641603e-05  -1.0461725222506043e-03 3.3725931703441997e-01 -1.3527619558329174e-03  -1.0178972364400384e-03 8.4721269007733990e-01 -1.9251365712791573e-03  -1.9994292153485160e-03 1.0126893146028053e+00 4.2943306397651306e-04  2.2805627116072240e-03 7.5026544261491956e-01 -2.9971657313115482e-03  -5.9355548925248778e-05 1.6458641546152081e-01 6.1151385625426839e-04  1.0803826844328085e-04 -4.8579901440698986e-01 1.5604153565319627e-03  2.8800434444134549e-03 -9.2712784004659388e-01 1.1772468711073985e-03  2.0507689667842192e-03 -1.0014691162174345e+00 -4.0934481919985529e-03  -9.7606742088953400e-04 -6.2525207274880068e-01 9.3189223890447197e-04  -7.1872361959085084e-04 6.3179216407996130e-01 2.3505762113860524e-03  3.1644486216805597e-03 9.8810162104984267e-01 -3.3646914707827166e-03  2.7184245402909575e-03 9.4206562585982001e-01 -3.2867431134596730e-03  5.9342807310079908e-04 4.8579922392797537e-01 7.6205119221850557e-04  -3.4831268487391478e-04 -1.7221218171619218e-01 5.2226028298328077e-04  3.4013529606909365e-04 -7.5463180333859603e-01 2.0364055863379897e-03  3.5422477516785139e-04 -1.0150409664515776e+00 8.2576391749691967e-04  -4.2157958326842380e-03 -8.5594820129343707e-01 2.3353549129411153e-04  1.0331520459078754e-03 -3.2279639975929691e-01 8.9057314631781135e-04  -3.3946986956930347e-03 3.2818017468390476e-01 2.7681792985183879e-03  6.4302274110177656e-04 8.5290266852406782e-01 1.2316336724013907e-04  -2.1658792572984906e-03 1.0327021381489649e+00 -4.5638051011320565e-03  -9.4188401581912263e-04 7.4395656428381374e-01 1.1677642351979366e-03  1.2639890102505377e-03 1.6409523049290173e-01 3.1670003280100302e-04  -7.3500542390073705e-04 -4.9416778142171797e-01 6.9684919895904654e-05  6.4180715971410283e-04 -9.5052170452254736e-01 2.0530666578170852e-03  -3.2315248693741492e-04 -9.7288982061218432e-01 -1.0064528486918784e-03  3.3091984149907715e-03 -6.2086424411165075e-01 -2.5484054106338703e-03  8.8688781532541975e-04 6.3599215659876374e-01 1.0028082493845096e-03  -4.8344795437251153e-03 9.9577027486710390e-01 -2.1781454910293463e-03  -1.7263516344551420e-03 9.4256355593461782e-01 2.2145091748663686e-04  2.3124381987371652e-03 4.8410936132874982e-01 -2.6597742303756020e-04  -1.7535972841508070e-03 -1.6424835474509078e-01 -1.0564755479003753e-03  -1.8222970701983819e-04 -7.4388870411391195e-01 1.5906728804751578e-03  -1.6774234027755806e-03 -1.0316821864634005e+00 2.5413609748295538e-03  -1.4024700752066207e-03 -8.4472034175067212e-01 -3.2322468235411713e-03  4.0577738628616664e-04 -3.2720471425083952e-01 -2.4076552269776155e-04  8.1605559988237884e-05 3.3299474916090388e-01 2.2624835523023475e-03  -1.2131963744140440e-03 8.6570865619515547e-01 -2.3140604584558399e-03  1.8583383115291583e-03 1.0118126810351069e+00 7.2126046209570354e-04  5.0567188352421989e-04 7.4247093177793122e-01 1.2744565775743332e-03  -1.1207203153551096e-03 1.7600240015593588e-01 -8.5220690160592446e-04  -1.0128844734742844e-03 -4.8889500227822869e-01 -3.9033702258488897e-04  -1.0367657164546584e-03 -9.1646828283433124e-01 -1.3988454026011689e-03  3.5214177123302013e-05 -9.9081848689500995e-01 1.9678703208797469e-03  1.4899397381726615e-03 -6.1654524534910715e-01 -2.8955141998871052e-03  -4.3832119846355742e-04 6.3329942680642382e-01 -1.2119204450607057e-03  -4.1221357053104184e-03 9.9394831514065118e-01 2.0717271487585005e-03  9.5315220540954340e-04 9.3962388709069278e-01 -5.2094850930551587e-04  8.4572959724925573e-04 4.8161214349454068e-01 -8.7832244674711680e-04  -4.1341485567053055e-04 -1.6981006800914708e-01 1.0646960536280752e-03  -2.4167256067872795e-03 -7.6308718890060534e-01 -1.5976964537714857e-03  -2.1458900535361795e-03 -1.0027873757135704e+00 -3.3844066367279973e-04  -2.6479583221906749e-04 -8.6473149893664014e-01 1.1577449530664994e-04  -4.5267845560091808e-04 -3.3335145828374768e-01 2.9241194280779794e-04  1.8179147080013397e-03 3.4212893995839971e-01 4.5110109228857823e-04  3.6553255912482745e-04 8.4457602794766740e-01 -6.2016456363990860e-04  9.0271402133989176e-04 1.0161741156555164e+00 -8.8034954803603224e-04  1.1877588956423536e-03 7.5342671207568834e-01 -3.3292299945281998e-03  -7.6862555661114541e-04 1.6965617408619146e-01 1.2100202137179182e-03  -4.2920881127129866e-04 -4.9273106126982930e-01 -1.2027596813021027e-03  -1.0252594282868311e-03 -9.2718582702875652e-01 2.1362501444542525e-03  1.2877305386652161e-03 -9.9457136168019211e-01 -9.4632577522880002e-04  1.0661621549294437e-03 -6.1793726836584650e-01 2.4720741661769527e-03  7.4715807899193215e-05 9.0790578478120213e-04 1.8255717594363513e-03  2.6804942631102973e-03 3.8645283894393374e-02 -1.0740744818022389e-03  2.8095481263519393e-04 4.1936665217484487e-02 2.2025398271649206e-03  3.0221467671799275e-03 -4.2890928743977169e-04 -1.0584520079635344e-03  2.5665832270548836e-04 2.1344936579055378e-02 -8.3371923770411173e-04  -1.5143708276327446e-04 5.5340883647872754e-03 3.7957891349401402e-05  -6.6529300722070967e-04 1.0125974916596283e-02 -1.7229188192147927e-03  8.3870771807662003e-04 -5.1539815387729232e-03 1.8367756527937176e-03  -1.0137349683729698e-03 -1.2799586402757588e-02 -4.3861917293673487e-04  -8.8226130976245469e-04 1.3601222571498766e-02 1.1074146437559970e-03  6.8095538562021199e-04 2.0631967999128236e-02 2.3021550515450236e-03  2.3051789530882435e-03 1.1640349630356433e-02 -1.6923914112612069e-03  5.2206776768620223e-04 1.7290535289895406e-02 -1.6205785443162700e-04  1.8062184068940125e-03 2.7949671222219988e-02 3.0159943259241563e-03  -5.4967882796319622e-04 5.5288434057858826e-03 1.8592408500174671e-04  1.8856308078392006e-03 1.1838919808473260e-02 -2.7756179388933170e-03  -3.4032630370520802e-04 1.4897615084127019e-02 -1.6012067776949210e-03  7.9936598080263389e-04 2.8736723928817268e-02 1.4672261440776869e-03  -4.5190895359873079e-04 2.6247866512586635e-02 5.3032273894767174e-05  1.3642840363776506e-03 2.4509977231802198e-02 5.5855565635193945e-04  -9.3907378719175342e-04 3.0920764615618844e-02 -4.3687069144186422e-04  -1.1222604542018646e-03 1.2479025089309386e-03 -7.8040659862720324e-04  5.5972894680700422e-04 7.6401321484739207e-03 -1.2867630886305944e-03  6.1777141086112961e-03 -3.6444194469785252e-02 9.7785119253231438e-04  -1.9279938400515163e-04 5.4613276452808363e-02 5.2426590074432439e-04  -2.9173152411197710e-03 1.6719216855990025e-03 3.1908206663623291e-03  4.7029553891989517e-04 1.7788260020249715e-02 2.4968228719081898e-03  3.7096231180906544e-03 3.1393330125250980e-02 2.5208051289180669e-03  -1.3024582636431917e-03 4.1345730037922893e-03 -7.1397888384024403e-04  -5.7401853521462873e-04 2.0146392425519324e-02 -2.6819042300468676e-03  -1.0648787401972494e-03 3.7471217894915122e-02 -4.4113268407785563e-03  -2.2945822223331908e-03 2.2206034096843841e-02 2.6804762044986617e-03  -2.2260012743913495e-03 1.3319080347849859e-02 -3.2033867526246409e-03  1.8243277561831223e-04 -2.6895659438211790e-04 1.6313764427378438e-04  3.4650838329148017e-03 1.7452888685024044e-02 -1.3984352881536760e-03  3.4524881788817975e-03 4.8976162903992218e-02 -3.8481293005964414e-03  1.5608750076276270e-03 4.7018772011434014e-02 3.7956799822914584e-03  1.0008054610261921e-03 3.2010146751840197e-02 -9.2979599508125532e-04  -2.2876041105368850e-05 1.2820224189884924e-02 1.1434495725085533e-05  1.2470698004767681e-05 1.8856624303654753e-02 -9.8370642042582370e-04  -7.9101370267895704e-04 7.8798176846085798e-04 -3.7824555043092971e-04  5.5918874310459149e-04 1.4937452872368424e-02 8.9102164350918006e-04  -4.2453047957292413e-03 4.2126260352913808e-02 -1.5519800777537326e-03  1.8666613275588307e-03 2.1143455273519154e-02 1.9463365427752280e-04  -1.5837121316279340e-03 1.2171198123608612e-02 6.6504873318650338e-04  1.9329735986028714e-03 1.1434317658120887e-02 1.3906949274946100e-03  2.0897611917317311e-03 3.8958070288558723e-02 -9.1801687098009904e-04  -1.1566067981383234e-03 4.1975626948205919e-02 -1.9651687229780453e-03  2.6865560141962425e-04 4.8193984366142001e-02 -2.7334845117196987e-03  6.9466767829375956e-03 3.9076503432867053e-02 -1.8171960556722844e-03  9.3584675751096785e-04 6.1746504027101683e-02 -3.1045384139041202e-03  -1.7084937740359566e-03 2.8350215007876697e-02 -2.1572884668874695e-03  2.1670088678223255e-03 -2.4083653309264039e-03 2.0893416601711710e-03  -1.4494252641495762e-03 2.4209375143668714e-02 6.7753402626487562e-04  -2.8413455163401793e-03 2.4570266830133223e-02 -2.0125429918466308e-03  -3.393472508