<?xml version="1.0"?>
<VTKFile type="UnstructuredGrid"  version="0.1"  >
<UnstructuredGrid>
<Piece  NumberOfPoints="2613" NumberOfCells="14439">
<Points>
<DataArray  type="Float64"  NumberOfComponents="3"  format="ascii">2.449293598294707e-15 0 -40  2.449293598294707e-15 0 40  6.123233995736766e-16 0 -10  6.123233995736766e-16 0 10  6.58378361122935 0 -39.4544521361089  12.98797876818733 0 -37.83268966802539  19.03789572148294 0 -35.17895004825957  24.56850850758671 0 -31.56562037585575  29.42895642692527 0 -27.09126286502964  33.48665913050114 0 -21.87792632489708  36.6309330662023 0 -16.06781698611878  38.77601063757321 0 -9.819419485631968  39.86337972026679 0 -3.303173818893296  39.86337972026679 0 3.303173818893289  38.77601063757321 0 9.819419485631968  36.6309330662023 0 16.06781698611877  33.48665913050115 0 21.87792632489707  29.42895642692527 0 27.09126286502963  24.56850850758671 0 31.56562037585574  19.03789572148295 0 35.17895004825956  12.98797876818735 0 37.83268966802538  6.583783611229359 0 39.45445213610889  1.645945902807338 0 -9.863613034027225  3.246994692046834 0 -9.458172417006347  4.759473930370735 0 -8.794737512064891  6.142127126896677 0 -7.891405093963937  7.357239106731317 0 -6.772815716257411  8.371664782625285 0 -5.469481581224269  9.157733266550574 0 -4.016954246529695  9.694002659393304 0 -2.454854871407992  9.965844930066698 0 -0.8257934547233241  9.965844930066698 0 0.8257934547233223  9.694002659393304 0 2.454854871407992  9.157733266550576 0 4.016954246529694  8.371664782625288 0 5.469481581224267  7.357239106731318 0 6.772815716257409  6.142127126896678 0 7.891405093963936  4.759473930370739 0 8.79473751206489  3.246994692046838 0 9.458172417006345  1.64594590280734 0 9.863613034027223  15.53588175341682 10.47570570671982 -35.33972224126907  22.52105177297604 10.76850249609674 -31.25446497751147  17.11199790951345 17.00083928873432 -31.90847835644055  -29.72657234906893 15.91711488703517 -21.51688523110382  -25.14992024955119 21.79628461017795 -22.19016648502969  -30.27309326250051 20.53672076911706 -16.17970717816803  -20.89355786170783 9.389879430176292 32.79160569667516  -21.50254498059339 3.757507031415958 33.51897522697282  -26.64996019884904 6.885284446091766 29.02365379300423  31.47556685883051 5.378936358232429 -24.09057356248239  35.08592513857359 5.349065357770876 -18.44899338632612  -7.137647015307699 -33.35587867819428 20.89113095766847  -10.48955743399326 -35.4140774700041 15.35618122410337  -13.01355430879985 -32.45546050027133 19.42396684426855  -11.43657062454909 -0.03685808298520405 38.3301903704041  -9.609585094508281 5.8692532341686 38.38238841949008  -4.568537977596148 3.31758443605268 39.59952138924059  -31.49222771933744 7.502498447505969 23.49366106673384  -32.73069959859194 11.7537767857384 19.7623388053583  -28.45303385594115 13.81215824501363 24.48773466467179  -18.8285579036339 27.81333248817475 -21.72335018296553  -24.48443087076404 27.10945119764579 -16.29694145222467  -31.36177321271318 16.57677189054089 18.48377165632921  -24.85129112667903 16.54764152587408 -26.61933299818408  10.01383607118345 -5.776818396636194 -38.29296875866052  15.75720863583826 -6.709798929918917 -36.14815312469951  -13.13329918173097 19.7415129756288 -32.21473448650826  -13.18801353993143 26.40945069928093 -26.99291041427055  -19.02544974766931 21.93827224377989 -27.50898894646451  -12.21316547777416 13.03275705454818 -35.79086241723759  -5.268738096262525 10.32620788308489 -38.28328394519346  -6.839409365138239 16.92417126160453 -35.59206241065469  -35.55718524879826 -4.577150679538526 17.74080800976787  -32.39241844245679 -5.673745030375088 22.77146997405041  -33.9790102328028 -11.06481664687723 17.97210884036906  -0.9816453653123123 14.90369757509052 -37.10682108409452  -7.27663286510801 23.99763105753954 -31.16350939436449  -34.17260777354002 1.536783648492278 20.73333484930774  30.181834640201 10.87004961476731 23.89349030853508  31.55530342902033 5.025258804421209 24.06261829999065  26.94926920827491 6.863254908511189 28.75121947328014  3.575597975181185 -37.46834474991199 13.54024522752903  -0.3086621438491544 -38.86705156830128 9.44759387717124  -2.106977156120542 -36.25648010904121 16.76389863266554  -25.10570013831043 -0.01600106960048824 31.14006365650224  -20.30168545525158 -34.30786828474635 3.288121261833596  -14.95504926646267 -35.76858592320193 9.846560947467664  -12.2624563887404 -37.96464240969074 2.884109917903714  -21.37792074566657 -32.01742957819189 10.85673559581894  34.00448323044128 -10.96281072669066 17.98643658986943  33.16287720395623 -17.27064686291152 14.21085263071589  29.49947274051343 -15.85899153871744 21.86946490901398  -34.27212094955226 -20.60482370410059 0.9289594943783835  -29.63185364883944 -26.78806146492992 -2.086387376518965  -33.19294097623149 -21.37395227419811 -6.432949053794337  -24.04382034957743 -11.12409314825994 29.96913836976437  -19.66843773935943 -15.01983367975011 31.42542208349135  -23.62602552711756 -17.23712869927144 27.2890511377135  -18.07301171367722 -19.45152560144166 29.9166241306359  7.659083394003484 28.92360064807372 -26.54738719939214  11.97293701464462 31.31497151272116 -21.81791324578992  6.165648999446344 32.84036881473823 -21.98851856145827  14.91326368495444 28.17635019025058 -24.15963278320648  26.00029168454535 14.16353805405327 26.89570638800823  23.62156226763754 11.52104458404254 30.15439151647114  20.61041634261285 17.13943524453665 29.68923201570717  19.02192988141736 12.16382310337485 33.0182917652662  5.559360584328876 -24.42572549097412 31.18457061004668  11.03603061403813 -19.4894745907638 33.1416114342979  11.94971062662093 -25.66091072668081 28.26167151138341  20.1798685080628 32.71162372756331 11.07802239136628  17.452146574544 35.11090308672834 7.914989853120611  22.86495810970977 32.62498145144492 3.578306294057573  16.41238239282671 36.35242917840987 3.022349586054905  -10.7677465314438 -2.302045403286149 -38.45459948557245  -4.38612424556664 -0.1394118440822915 -39.75855226791064  -5.442748766938489 4.281360824974659 -39.39602055216189  -3.059258078670331 -4.747574549759611 -39.59926105248134  4.070620108831676 -5.591410955101921 -39.39754022094198  -22.40600737747275 30.8158050845394 12.18018843829243  -23.80823529213034 26.50877468793443 18.17836067468367  -28.74045257894489 25.33418309319387 11.49632778577358  -29.04965782139183 21.82742773730147 16.72365925367206  20.49825576433122 5.470078814292259 -33.91017175399577  13.00825033791319 4.716540500854282 -37.53051650124179  24.96131121306764 21.5542587120073 -22.63508060291019  19.49422082031237 22.98275419593832 -26.30148977107531  24.49451857030708 16.0767974067618 -27.23151015185935  35.25100337319021 -5.758274855144236 -18.00580550477946  37.70892951717559 -5.878962384031901 -11.97808148059702  20.97495638671236 26.95129446992712 -20.82495932699006  21.86483754552626 32.46679010188245 -8.236286759702628  18.22599328833919 33.36877840175752 -12.42327640470964  22.63957063641941 29.54713243611452 -14.64297805097327  5.724499338174645 -38.7000252966944 8.338953733080155  39.0994190945011 -6.041889421216823 -5.893301171190153  37.31705206870475 -11.87333547569591 -8.152394101315267  26.8664093178926 25.14230745647919 -15.68631333766237  -1.027026885078869 20.9620189950968 -34.0520039854709  15.96573572568732 31.83473462008143 -18.21112172290605  35.15195440762426 -12.93233154291638 -14.03904919103839  -27.11050960258531 -27.28632697514156 10.97618464193236  -23.51146242057757 -28.20337850794761 15.86759514177266  17.56866097168276 -6.413287714463801 35.35833554274831  21.80518893115878 -11.0594036576927 31.65791096096967  15.84542185719573 -13.58629694191485 34.12235545172137  22.12059994355968 -5.064825882283333 32.939741907294  -5.437931178100277 -30.49474064339248 25.30809549520611  -0.8234633162255885 -32.52043165637636 23.27538255431659  16.20339353098199 6.491088211537515 35.99049613314839  10.06801812277176 6.366083651591906 38.185180240775  12.59101587471143 12.47614464548291 35.85822268361544  21.06720908314858 -30.55938394764149 -14.9096195185368  23.09331396015825 -25.91647068681495 -19.87549741458115  18.67068577047733 -28.78277891152334 -20.56592159351151  -11.31099600702532 -29.83743549744388 24.1202987598606  -34.69758838383603 16.02928645925417 -11.79573380307717  -36.23761441649643 8.868951561430706 -14.42834015409693  -33.48147009306122 13.7377620559513 -17.0371668449162  12.86990747934133 23.40228323364368 -29.77748513433453  7.989502321581628 17.49714551968233 35.07160890687084  4.194277596478358 21.46229937241431 33.49295061789188  8.861995543234519 22.97459846563985 31.5219425215882  2.062539068003777 16.79382622088228 36.24518358976493  3.302254729051216 31.12151585358969 24.91076804675489  -3.237908179909204 29.35276108868883 26.9802032440238  -1.714205612298309 33.22502898399233 22.2071823546265  2.439219659204209 26.08020276844684 30.23033627022448  24.44683202128719 31.47875942942091 -3.382323004624446  19.76460609885411 34.69977240045288 -2.299160958677657  3.13190467376213 -36.26022669027451 -16.59479236038738  7.727804429952934 -34.36653829928681 -18.95315498844593  2.288118481143042 -32.92463776242246 -22.59939693950962  -38.96557139159426 8.066410704995853 -4.076427905029002  -38.12098763662057 12.07378699324774 1.006960401556874  -39.57972938554477 5.322402643481785 2.262090154636279  -36.86768450174365 14.60674937964034 -5.236097023572739  34.24785092714792 -5.420798882560009 19.9424082383921  31.33079643848202 -4.58740103385682 24.440477619821  -8.505553831218217 -21.90083269588995 -32.37296837256181  -1.249195594295447 -18.21468690827154 -35.5902330871945  -6.691809618234807 -14.78357303886607 -36.56043834854572  -27.44080449768052 -21.74904730496604 -19.3385932747557  -24.24965665925197 -20.06821261644574 -24.68240252263796  -28.60961136708747 -16.80943888920025 -22.33680598596097  -26.2488201723993 -13.97317681340474 -26.75350013172804  -15.49514408870478 35.16732608653125 11.097733353881
[...]
<PointData  Vectors="f_291-1"> 
<DataArray  type="Float64"  Name="f_291-1"  NumberOfComponents="3" format="ascii">-4.4429262433770005e-05 3.7264745041073785e-05 -2.2731416782934845e-04  9.6061273052656834e-06 1.4743961792840978e-05 -7.1333656393105195e-06  -2.9683067484784050e+02 1.0296751415968020e+03 -1.0231171462693546e+04  4.5901403566706955e+02 1.8186226712818421e+02 5.5394756086008611e+03  -1.0624030572813392e-05 9.5349956313693963e-06 1.0049707549394471e-06  1.1002094811035898e-05 1.9306858608762154e-05 -7.9218092243789707e-06  1.4957177380546455e-05 3.0099129474565947e-05 -3.3651891843985740e-05  -7.9682714209909774e-06 -9.6325853909364632e-06 -3.6764747311117967e-06  3.0738708290924129e-06 -1.1027094364591409e-05 -9.1537916560084328e-06  -8.8065593375563845e-05 -2.4766771102684539e-05 -4.7457444449355022e-05  5.2765120693710702e-05 -1.2105874771792221e-05 -2.1983254867885066e-05  -8.5917642620684460e-05 -4.9243010484095243e-05 -5.2768247211412386e-05  4.0613338230045140e-05 1.4243610572555693e-06 3.6889695265349361e-05  -6.8722779730266162e-06 1.1305528538160135e-05 2.6308026364986061e-06  -8.2445649484099692e-06 -4.9106229757758094e-06 -8.7994251360835620e-06  -4.0275258874111305e-05 1.0625848348485530e-06 -7.5521456494111515e-06  5.1904251492599260e-08 4.1885841229617745e-07 2.6047034543250072e-07  1.6808075460265334e-06 -1.7096320645774202e-06 1.2213514674447330e-06  8.9079341095407702e-06 -7.9115141874242325e-06 9.9925973370332696e-06  -4.7660642474882429e-06 3.2210242683229691e-06 -4.9298559134742585e-06  -4.9000059950800856e-06 6.0610122390020084e-06 -1.6830352711998097e-05  -2.2029460877258244e-05 2.7295151253682615e-05 -6.1765269586003602e-05  -1.4263794490153671e+03 3.3243938370643860e+02 5.6326450630982463e+03  4.7955874066328442e+03 -1.1178223434504127e+03 -1.8937346404754328e+04  -3.6261271190136849e+03 -9.1153226561129406e+02 7.1569723370738466e+03  1.0016886699590395e+03 7.0602968649219292e+01 -1.0881239596852247e+03  2.6186146793327371e+03 2.2464918447392552e+02 -2.0381496153481992e+03  4.6899355488798710e+03 -3.1517188465853046e+03 8.6240788627102393e+03  -1.7451480983091578e+03 -7.7962230762496375e+01 9.4442692202514297e+02  3.1830332720923666e+03 2.4610381042645685e+02 -1.0927367025482563e+03  8.2805776761641409e+03 4.4150259129967498e+02 -1.3817840229479812e+03  -3.6940710244765805e+03 -2.2700275249197568e+02 -6.1643142796063478e+02  -7.3791744621220923e+03 -4.5329469567589342e+02 -1.2313664303466098e+03  4.2852576553165945e+03 -4.6028924572997516e+02 2.0299770179209015e+03  -4.2140212251511512e+03 -4.7146812549585729e+02 -2.7908927531469799e+03  2.7334234329307742e+03 -1.0495330990171054e+02 2.9692893795620485e+03  -2.3434502305211863e+03 -3.2786991510024382e+02 -3.5869176033129534e+03  -2.9796265324957972e+03 4.7613536948388241e+02 -5.0553394617441809e+03  -8.1164527405232957e+02 2.9509395256149952e+02 -2.6061948036571757e+03  4.8570701162455242e+02 -9.9457263553540827e+01 1.9180136134377012e+03  4.9287203498292698e-06 1.3741063713089354e-04 -2.7595854399209988e-04  1.7361150101975834e-07 9.9673340300352411e-06 4.8802506112951670e-05  2.3123665216538245e-05 1.0653904216754241e-05 -3.7744785734582653e-05  4.3757300349692845e-05 1.4665273536790630e-05 5.5032084871734021e-06  -2.2203975114016379e-05 2.8174749217821879e-05 -1.4660409838392783e-05  -2.7673127216390042e-05 -3.2234830655120700e-05 4.1397968425151476e-05  -7.5887514616913907e-06 4.7191450347422428e-07 6.5177072879117108e-06  -8.0724759648527867e-06 1.9950632415024917e-05 -8.4921700134836119e-06  -7.3276525208000191e-06 -3.1197380689958888e-06 6.4755517070671601e-06  4.4544854072723418e-05 2.9852218163799089e-06 -2.8088360243812529e-05  1.1530822805670365e-05 -2.6209038756140603e-06 2.2507134884440605e-06  -4.3972495175239674e-07 2.5476367346946174e-06 2.9347909059194248e-06  3.1940812466806744e-06 -5.2621068448245627e-06 -5.9112588603920610e-06  -5.2674173553616747e-06 -7.7810756279101087e-06 6.2218356490471089e-06  5.6892798464349668e-05 4.6375569997152802e-06 1.3698169858713957e-04  3.4962816049510587e-05 -1.5767250285022535e-05 3.3333781993152271e-07  2.9961356191806269e-06 8.4906589500972659e-07 -6.0188969616857490e-06  -9.2379300052454350e-06 5.9352000562944724e-06 -1.5386302579048918e-05  7.7343238812005159e-06 -2.2142333805420294e-06 9.1580616264671700e-06  2.3776621934566687e-05 -1.7482364104309308e-05 -2.0175604483527611e-05  4.1147940271231082e-06 -7.4274655693282011e-06 3.8661957702176875e-06  -5.4091651018107608e-05 -1.7558595321579413e-06 -5.1636021662314851e-05  5.8910294981112155e-06 -3.5636017838411739e-06 -2.9346633228783916e-06  2.8616572719391286e-05 -8.0822437966286196e-05 6.7383747101278996e-05  1.4879540204649042e-05 -8.1330552320438733e-06 -6.6772198145530572e-05  6.0389685373622690e-06 1.4738318988730647e-06 -7.1001588287781069e-06  1.0138027033269377e-04 -6.6251499998913827e-05 2.4639096227015345e-05  -2.2181578317729164e-05 1.7736741497398216e-05 -3.3831863552039374e-05  1.0328472846796493e-04 -4.8128086547988540e-05 1.2151815696928524e-04  1.0333169925297275e-05 -1.6365652943184946e-05 5.2525894019255846e-05  -1.3897825507636550e-05 -2.6720132815953675e-05 9.1132325214640995e-06  2.6595236531267515e-05 -4.3621422721587119e-05 6.8069044402598814e-05  -5.7236216920352265e-06 -3.4621606121076358e-06 1.5010429862470279e-05  2.3500573015535188e-06 9.1205942800835441e-07 -5.5670910727984730e-07  7.0878874433650786e-06 2.2838502690984983e-06 2.8902447397771490e-06  2.5319588918303480e-05 -3.5561264485947460e-05 7.7258898240094390e-05  -4.3033253747895887e-06 9.0499444426823744e-06 -1.8825413898116661e-05  2.6452730870551891e-06 7.4032679922669042e-07 -2.2525741963312254e-05  5.8477027387081389e-05 2.3250553445677998e-05 7.3438708876096397e-05  -1.4018673198010861e-05 1.2920362136153843e-06 -1.1814412016728676e-05  1.3298882971546587e-05 7.3338973601329841e-06 1.9844543506332274e-06  7.2616565694751073e-06 5.7846519349575599e-06 1.9349194745305091e-05  3.0401498937581372e-07 4.1424490010141714e-06 3.0465553465402819e-06  2.4313834203829152e-05 -5.6992083264926220e-06 -1.6471025078525782e-06  1.3166218397282450e-06 8.2715318663436469e-07 -4.1730762679209394e-06  8.6146082404381514e-06 1.8245684615649032e-05 5.7176380720638470e-06  -3.4856747509960621e-05 -9.0752291770372295e-05 3.9029271770249773e-05  6.9755987440348743e-06 4.0754596361237075e-05 9.3577717839010807e-06  6.1465164819166014e-05 9.1854848697484149e-05 -8.0759928648607665e-06  1.1049785595841688e-06 3.2449026251863813e-07 7.8670066015787199e-07  7.3382085000546538e-07 -5.5616064629272531e-07 -4.4987314913078844e-06  -2.0656185839621823e-06 -2.1792547279631326e-06 -1.1443308891054015e-05  4.3275716456887977e-07 -1.0405838670859202e-05 -1.1313639806750017e-05  -4.8238535776734523e-05 -4.4878204615315969e-05 -8.6992989110097619e-06  6.9853966846869462e-05 8.0648082077446606e-06 1.2213202205906773e-05  1.5849493538809949e-04 -2.3661407478385156e-05 -3.7322014559695896e-05  4.7136030322337486e-05 6.1636984726339171e-05 -4.3403355853380316e-05  -2.9368580685430209e-05 1.6891090704384509e-06 2.7309542182534219e-05  1.0186569265745896e-05 4.4046672895480690e-06 -2.6326661862937690e-06  -8.4965174711309117e-06 -2.5979598657992939e-05 2.6260819529740260e-05  6.7268332346905823e-06 -1.1587423224858762e-05 1.2544809018716639e-07  -1.1238974009457857e-05 5.3103851594862300e-06 -9.6648628685756554e-06  1.5997553511785949e-05 9.5888655955228239e-06 1.0635887984477174e-05  -3.2654218689209635e-06 1.4323455881904951e-05 3.9396796068902694e-06  5.7465030004740791e-06 5.0238810738717389e-07 2.7983173099378835e-07  -2.9234911479387756e-07 -7.0728857073986256e-07 -7.6617255968839961e-07  -1.4426099946314551e-05 -9.2397674361763506e-06 -2.3811715180869719e-05  9.3201551951711002e-07 5.8557847979664812e-06 3.8508987956196019e-06  6.5094133375913276e-06 -1.0625889920168649e-05 1.4097223714783920e-05  -2.8576124940694034e-05 -1.2883022930825289e-05 -4.3058171978806847e-07  1.7194178011686596e-06 2.5479024178154763e-06 8.0450279126503465e-07  -6.6463710073456928e-07 -2.1193837804771197e-06 -9.8090249722086009e-07  -3.8816633903193746e-05 2.7195777408101184e-05 3.3610861436488736e-05  6.3873373512082501e-06 7.7380345099327510e-06 2.7565386084991540e-06  3.5860650930839001e-06 2.4816458506557856e-05 -4.9520314787609594e-06  -4.5360366862484870e-06 -5.5098716298985858e-06 4.9248285696490003e-07  -2.9141607244580907e-05 -7.4928736543520142e-05 -1.3210349305303693e-06  6.8907250629153137e-04 2.6671631112339691e-04 -1.3918644628237753e-04  2.6373580636556237e-05 -9.4286700304313269e-06 -7.2897529535558120e-05  -2.8235916403205508e-06 9.9987605857432769e-06 -7.0641483171781680e-06  1.9258142049940121e-07 1.6442112041901393e-06 -3.4277817099260184e-07  4.9843110953002350e-05 -6.1996604924421855e-05 -4.2864928218905406e-05  -4.1271338782198263e-06 1.0768341348993355e-05 5.8116090492627103e-06  -6.1307635003910187e-05 -3.4708599381471654e-05 3.7743431152811154e-05  -3.9215026889702551e-05 9.9065669885448051e-06 9.5152761496085250e-05  1.2612189643753589e-04 8.2428314192436599e-05 -9.7307132939901026e-05  3.9316732972287121e-05 1.4998113322298662e-05 -1.2737291253728837e-05  4.9578656700791523e-05 1.7680399691303275e-05 -2.4474802056702741e-05  -1.5072564792794387e-04 -1.0135800405964429e-04 1.8526943497327363e-04  -3.6448863121445055e-04 -6.0826970767630063e-05 -1.3978524126822896e-05  6.1281896548611811e-05 -9.3364878760898117e-06 -8.2011314487208151e-05  -7.8516546844044532e-06 -4.4682071972719522e-06 -9.7206141529705518e-06  5.6064276926316929e-06 2.5340202291266174e-05 -1.3745580427825308e-05  -3.0353729787769694e-05 -4.1542907395060474e-05 2.2992633495855836e-05  1.1210866302742190e-06 7.7613395385563001e-07 4.5538699032308774e-07  -1.1808351847057609e-05 -5.8940013114688726e-06 2.5155102111368412e-05  3.5476170849858773e-05 -7.6376631009365028e-05 -7.4015911195652285e-05  1.9980835405254727e-05 1.2843347222762741e-05 -2.0666996379654730e-06  -2.6758694437829476e-06 9.9704889975964665e-07 9.4946265765628667e-07  -5.8121864900806680e-06 -5.1481209353824939e-06 -8.1102594285534554e-07  -1.5252008701545770e-04 3.4773829972196128e-06 -5.3979026912071143e-05  2.5625232548848470e-05 2.9539275125811686e-05 -1.7907516617029737e-05  -1.8471737882423623e-05 -1.1463636765068435e-05 1.9095569230747458e-05  2.5528626619223864e-06 -1.2642776559711426e-06 1.3943167013307996e-05  1.1054197151708183e-05 -1.0858339956240106e-05 -9.0803044510442035e-06  1.0448231249793371e-05 5.0028445927248939e-07 -6.6849490952919367e-08  4.2429671139543727e-06 6.5628537178743244e-06 -1.0413839292342287e-05  -2.3275873697139169e-05 -5.6462746987415206e-06 1.7896395284258748e-05  8.0244953825260494e-06 -1.0481897114372151e-05 1.2239534913817971e-06  -5.9111458444198250e-06 1.4129092009195090e-05 -1.9761906749108079e-05  6.7681024741536420e-05 -4.3554383707723740e-05 1.2912656920635051e-05  -2.6591314143953618e-05 3.5244289897267775e-05 9.7062078241013156e-05  2.2743748096255247e-06 -3.7073889418096812e-06 -2.1611048660640709e-06  5.0465742202809458e-06 1.4475093942623963e-06 -8.3993115777290268e-07  6.3078008537431965e-06 -1.1311714584203202e-05 -4.1013807669162585e-06  1.2436681258589705e-07 -3.9938061480734852e-07 1.5887423378949717e-06  3.8488659550933540e-06 -3.1442811202327945e-06 5.5235691577782536e-06  8.9408769050583627e-05 -4.8121276166323692e-05 7.8655394826262964e-05  6.3013109558673400e-05 -3.5016862491667175e-06 1.3901663111181145e-05  4.2348336440754157e-05 4.6570420564307334e-05 -5.0009724294614345e-05  -3.0377171239206792e-05 -2.3323839009698526e-05 3.7550284794928144e-05  -2.1733664783739117e-06 2.0349884187190439e-06 1.8419333173597096e-06  7.4691604134600222e-07 4.0961943075894547e-07 1.2210393123886496e-06  -3.6932947027671491e-05 -1.2328752513592284e-04 -1.0574710536009470e-04  2.5201893905050373e-06 3.2934965256779882e-07 -4.1510613267342715e-07  -4.3204193403334782e-07 5.7619137987116518e-06 2.4305761616538771e-06  2.2273855689719900e-06 3.9192895058723510e-06 7.7505270561115922e-08  -2.7996343396199992e-07 8.4172322660485829e-07 2.2400361440227805e-07  7.2876775827885664e-06 3.0186892987325844e-05 3.1733596638380787e-05  7.8648252419757280e-05 2.8621076242375392e-05 -3.3447761153357987e-05  1.5655591027369296e-05 -2.3332227211513784e-05 2.0707899500408061e-05  1.2280001711083280e-05 -9.1845515317095262e-06 1.0194049095366762e-05  -2.1230345585785947e-06 2.1199889819018205e-06 -1.3374827883744272e-06  -4.6025248656309085e-07 2.5613718653186544e-05 1.5957458752214605e-05  6.9795532623317855e-06 2.6702516518221134e-06 2.5115333094533241e-05  1.9228897528501991e-06 -3.9312601469189745e-07 9.8473499448516434e-07  4.9747789897966117e-06 -2.9649434514753671e-06 3.0482506665688236e-05  4.6223421611591928e-06 -2.0586013254035394e-05 -3.7779972938683116e-06  1.6245110830534462e-06 -2.5288556815794359e-07 1.0973884158336277e-06  6.5279281903874021e-06 1.9938102543023495e-05 -4.4938586310403774e-05  -6.8160362073721996e-07 -3.5841872483559146e-06 -5.3362344958125504e-06  -4.7148656057630473e-05 -7.0964449890056853e-06 5.2348255717914320e-05  4.7814394372250907e-05 4.2802100618165270e-05 6.3534742502571192e-05  -3.2137125071660759e-05 -1.5251745824447737e-05 4.6994648098301064e-05  4.5638743914899929e-06 6.7517711660810222e-06 -1.2675242015520866e-05  -1.4453205678623549e-05 -5.8671740286060908e-05 -6.3506635575481267e-05  -5.9146307831620286e-06 -4.9554352089457470e-05 -8.1519828902145378e-06  4.3821392335679426e-06 -1.8214158974388313e-05 6.0982791732713244e-06  -1.5566518437274668e-06 -5.0517390455431560e-06 -3.1569459478518891e-06  2.0632451614989574e-05 3.2549096569854370e-05 7.8911126943732063e-06  -3.7505617279342620e-06 1.2057074565795016e-05 1.1529154994485492e-05  -3.5596254182690969e-08 -1.2380677489501589e-06 -1.8339736936694799e-06  1.1684209382261687e-05 -2.5362640792760675e-06 5.1130540307595308e-06  2.6527934192726279e-06 4.1336136192676100e-06 -6.5112882193724433e-07  -9.2220673828766184e-07 9.5441891758214270e-07 3.7842911175372749e-07  5.9974445201944549e-07 -2.0401296095754203e-06 -6.2386349872653088e-07  -1.3184744895402961e-07 -2.4082405724300245e-06 1.0930329321056275e-06  -8.3979779466244491e-07 -1.3184602526253017e-06 -4.1073863615288411e-07  -1.1168785568899091e-06 -2.0945999274244220e-06 -8.4755267211730919e-07  -5.5399296294268088e-06 1.3640035074354619e-06 -1.0461638530983184e-06  -1.3744544053948788e-05 8.3970840850405926e-06 1.6829876963207185e-06  2.2865472975065575e-06 -8.8487509889755409e-07 -7.5016362809845104e-06  -4.0242706828728055e-06 5.5223203111163401e-06 -1.3021095516484553e-05  9.4741374061264812e-05 2.6953906368198303e-05 7.6096837906288812e-05  -2.5300714757121106e-05 6.5535939805239763e-06 -2.8872541296060933e-05  1.5516737389128953e-05 9.6969325100697911e-06 2.7408113458174834e-05  4.8656629736472471e-05 2.6727425369030631e-05 9.3067552217406861e-05  1.7097498703529695e-04 1.1543715858023207e-05 3.8671038349932255e-05  2.7956651951278629e-05 9.0012365249673051e-07 7.6418165893118879e-06  1.2339516109336545e-07 -1.1177592570665230e-06 -3.2389239194245419e-07  -6.7601608794127898e-06 -1.3436940306586788e-06 -1.1571615425112908e-06  4.6975941964033542e-07 1.7828082539447334e-06 5.5085790091595438e-07  -1.6686062497273678e-06 -4.1867809658005704e-06 -9.0092612564537095e-07  -2.2185828528051627e-06 8.5158558798238672e-06 -8.9147383293505691e-06  7.1876348257591643e-06 3.9215348383482686e-06 8.1810437271630886e-06  1.2853409361240298e-06 2.6321903658625018e-07 -1.0288577628821543e-05  -2.9926842614512654e-06 -3.4650331688436413e-06 8.1125728447170653e-06  9.4839237759377346e-07 -1.1245739046319446e-05 -2.6719810783720427e-07  3.3531393302637896e-07 1.3269836007177653e-06 -6.9319696233038984e-08  -7.5224636613976047e-06 1.2520454428837301e-05 -5.5253780997335042e-05  1.2787567229937529e-06 -1.0364507217088569e-05 -1.1948589349759458e-05  -2.9320001898317442e-06 -2.9415357745046251e-06 5.5979065451584677e-07  -5.3143582240192086e-06 -2.1589333246232129e-05 -4.6099688531685192e-05  4.6768883836939546e-05 3.1819710620988175e-05 -6.2446930070239010e-05  -6.8112314405419442e-06 7.3835950374775788e-06 5.0504171473777144e-06  -7.5096857868245321e-07 4.1011907516180103e-06 2.6604234114459962e-06  7.9946873993049780e-07 -1.5772185208812395e-05 5.1086841923259003e-06  -2.1220311422376647e-07 -4.3592556760247357e-08 -2.6169579425729596e-07  -2.5136870376663588e-07 -1.7110121831425252e-06 -2.3359877615018142e-06  1.7451371414411379e-05 -2.1602943753270558e-05 -2.6363095383327601e-05  3.7630868183191290e-05 -3.5521609416036190e-05 5.5183901040646937e-05  -2.5317236266645979e-06 1.1010485107056492e-05 -1.4146430266557877e-06  9.5726314605884726e-09 1.3225881058097232e-05 -1.3945566684532508e-06  8.8588331959835213e-06 1.3381745679752088e-05 -1.1812155851332663e-05  -8.2284314913431913e-06 1.6589954318945538e-06 -4.8110869892255654e-06  7.1863224927067317e-07 8.6460019958667540e-06 1.8337162201859461e-05  9.1941201676307598e-06 1.2291364209006563e-05 -9.0550638086656509e-06  -4.9439816328190553e-06 1.3805799000118905e-05 -1.7048740830806423e-06  7.5471731701916245e-06 -2.1507186725790774e-05 1.1104752707706816e-05  -5.9271713522658345e-06 5.9160238844001515e-06 5.8435985458105203e-06  -1.4898837058073810e-05 1.0118749315653088e-05 1.8239273057727287e-05  2.6005302175030950e-06 6.3441181009590937e-06 -9.2325475799777573e-06  -1.7486914215725778e-05 -3.3897294812852866e-05 4.1612904999009388e-05  -7.3624353077297107e-06 -1.0799491967194922e-05 2.2733138377519683e-05  1.5071436343768148e-05 -1.2789939513795828e-05 1.6581267255773003e-05  -1.0002268117113810e-06 2.2063276116388168e-06 2.7133514656665177e-07  -3.6962205806471111e-06 -6.0159797900730789e-06 -2.0575062301354826e-05  2.9496247983765140e-04 4.6885339285113452e-04 4.1766738200253988e-04  -3.8669219924421236e-05 -1.1131480519256471e-05 -1.3107594745240212e-05  1.0078335783716361e-06 1.0284515276613553e-05 1.4138881977986642e-05  -3.3951832735918830e-05 -9.3383205551823390e-07 -3.9885304142061832e-05  -2.3029400628581832e-05 -1.1778401231414297e-05 4.7322650739603162e-06  1.1822961043978545e-05 -5.9264784790351124e-06 -3.2559433639074318e-06  -2.8441961467275676e-04 1.8555448314501428e-04 2.6385913923884961e-05  6.4729722524346738e-06 -3.0638289149821583e-06 2.4078509231224405e-06  -6.6657872612045795e-05 4.5419118462282003e-05 -6.6546893025516772e-06  2.4656569883603611e-06 1.1144977602691572e-05 9.0509667295268131e-06  -6.4244768818288170e-06 1.1502580824915303e-06 -2.2161861251925583e-07  3.1732148791266960e-05 -3.8709370916318979e-05 3.7061690620563297e-05  5.0351290545878951e-06 1.0637553673994127e-05 -4.5814258118223669e-06  -6.6422698617241958e-07 -4.9814248016525992e-07 7.7251366149519490e-06  -5.3290369271554747e-05 -1.5758277613605546e-05 -1.5489565450184506e-05  6.5880725272819591e-06 -4.0134015417377531e-05 -8.8364921878488433e-05  1.9035942807555581e-05 5.5474212004848191e-06 -8.7697358607896339e-06  -2.3458599477006872e-06 2.6930260411441534e-05 -2.1483761449610326e-05  4.0046398380102021e-05 2.3153647351526422e-05 3.6597748960932876e-06  -8.1392869493571668e-06 2.3036587161370154e-07 1.6913103334998790e-05  -3.6194073526189002e-05 5.5607266732890818e-06 -3.1865732019805931e-05  2.8339992657493083e-06 -1.5701631571169228e-05 2.4183817444348314e-05  -4.8687288824697764e-05 -3.1760504280280925e-05 -8.5506327546831391e-05  7.4552840023774148e-06 3.2384338404043178e-06 7.1624151576655731e-06  3.5437765467086813e-08 3.5002933523979226e-07 -1.9084108633020420e-07  -1.6668129171200057e-06 -4.4596255003926872e-06 -3.6682344095701604e-06  5.0561093666186577e-06 -3.0328842849229969e-06 -2.3202126596756575e-06  2.8820425351493236e-05 -1.7421336145103084e-05 -1.0078504424395731e-04  2.0457899835361165e-08 -3.6711855047169080e-06 -6.5797246683908447e-06  5.4221769056071970e-07 2.6447560987997938e-06 4.7764666700677935e-06  1.1361183126535485e-05 1.4389870414285726e-05 8.2485506565720418e-06  -1.7403670315439483e-06 -7.