<?xml version="1.0"?>
<VTKFile type="UnstructuredGrid"  version="0.1"  >
<UnstructuredGrid>
<Piece  NumberOfPoints="2306" NumberOfCells="11125">
<Points>
<DataArray  type="Float64"  NumberOfComponents="3"  format="ascii">2.449293598294707e-15 0 -40  2.449293598294707e-15 0 40  6.123233995736766e-16 0 -10  6.123233995736766e-16 0 10  6.58378361122935 0 -39.4544521361089  12.98797876818733 0 -37.83268966802539  19.03789572148294 0 -35.17895004825957  24.56850850758671 0 -31.56562037585575  29.42895642692527 0 -27.09126286502964  33.48665913050114 0 -21.87792632489708  36.6309330662023 0 -16.06781698611878  38.77601063757321 0 -9.819419485631968  39.86337972026679 0 -3.303173818893296  39.86337972026679 0 3.303173818893289  38.77601063757321 0 9.819419485631968  36.6309330662023 0 16.06781698611877  33.48665913050115 0 21.87792632489707  29.42895642692527 0 27.09126286502963  24.56850850758671 0 31.56562037585574  19.03789572148295 0 35.17895004825956  12.98797876818735 0 37.83268966802538  6.583783611229359 0 39.45445213610889  1.645945902807338 0 -9.863613034027225  3.246994692046834 0 -9.458172417006347  4.759473930370735 0 -8.794737512064891  6.142127126896677 0 -7.891405093963937  7.357239106731317 0 -6.772815716257411  8.371664782625285 0 -5.469481581224269  9.157733266550574 0 -4.016954246529695  9.694002659393304 0 -2.454854871407992  9.965844930066698 0 -0.8257934547233241  9.965844930066698 0 0.8257934547233223  9.694002659393304 0 2.454854871407992  9.157733266550576 0 4.016954246529694  8.371664782625288 0 5.469481581224267  7.357239106731318 0 6.772815716257409  6.142127126896678 0 7.891405093963936  4.759473930370739 0 8.79473751206489  3.246994692046838 0 9.458172417006345  1.64594590280734 0 9.863613034027223  15.53588175341682 10.47570570671982 -35.33972224126907  22.52105177297604 10.76850249609674 -31.25446497751147  17.11199790951345 17.00083928873432 -31.90847835644055  -29.72657234906893 15.91711488703517 -21.51688523110382  -25.14992024955119 21.79628461017795 -22.19016648502969  -30.27309326250051 20.53672076911706 -16.17970717816803  -20.89355786170783 9.389879430176292 32.79160569667516  -21.50254498059339 3.757507031415958 33.51897522697282  -26.64996019884904 6.885284446091766 29.02365379300423  31.47556685883051 5.378936358232429 -24.09057356248239  35.08592513857359 5.349065357770876 -18.44899338632612  -7.137647015307699 -33.35587867819428 20.89113095766847  -10.48955743399326 -35.4140774700041 15.35618122410337  -13.01355430879985 -32.45546050027133 19.42396684426855  -11.43657062454909 -0.03685808298520405 38.3301903704041  -9.609585094508281 5.8692532341686 38.38238841949008  -4.568537977596148 3.31758443605268 39.59952138924059  -31.49222771933744 7.502498447505969 23.49366106673384  -32.73069959859194 11.7537767857384 19.7623388053583  -28.45303385594115 13.81215824501363 24.48773466467179  -18.8285579036339 27.81333248817475 -21.72335018296553  -24.48443087076404 27.10945119764579 -16.29694145222467  -31.36177321271318 16.57677189054089 18.48377165632921  -24.85129112667903 16.54764152587408 -26.61933299818408  10.01383607118345 -5.776818396636194 -38.29296875866052  15.75720863583826 -6.709798929918917 -36.14815312469951  -13.13329918173097 19.7415129756288 -32.21473448650826  -13.18801353993143 26.40945069928093 -26.99291041427055  -19.02544974766931 21.93827224377989 -27.50898894646451  -12.21316547777416 13.03275705454818 -35.79086241723759  -5.268738096262525 10.32620788308489 -38.28328394519346  -6.839409365138239 16.92417126160453 -35.59206241065469  -35.55718524879826 -4.577150679538526 17.74080800976787  -32.39241844245679 -5.673745030375088 22.77146997405041  -33.9790102328028 -11.06481664687723 17.97210884036906  -0.9816453653123123 14.90369757509052 -37.10682108409452  -7.27663286510801 23.99763105753954 -31.16350939436449  -34.17260777354002 1.536783648492278 20.73333484930774  30.181834640201 10.87004961476731 23.89349030853508  31.55530342902033 5.025258804421209 24.06261829999065  26.94926920827491 6.863254908511189 28.75121947328014  3.575597975181185 -37.46834474991199 13.54024522752903  -0.3086621438491544 -38.86705156830128 9.44759387717124  -2.106977156120542 -36.25648010904121 16.76389863266554  -25.10570013831043 -0.01600106960048824 31.14006365650224  -20.30168545525158 -34.30786828474635 3.288121261833596  -14.95504926646267 -35.76858592320193 9.846560947467664  -12.2624563887404 -37.96464240969074 2.884109917903714  -21.37792074566657 -32.01742957819189 10.85673559581894  34.00448323044128 -10.96281072669066 17.98643658986943  33.16287720395623 -17.27064686291152 14.21085263071589  29.49947274051343 -15.85899153871744 21.86946490901398  -34.27212094955226 -20.60482370410059 0.9289594943783835  -29.63185364883944 -26.78806146492992 -2.086387376518965  -33.19294097623149 -21.37395227419811 -6.432949053794337  -24.04382034957743 -11.12409314825994 29.96913836976437  -19.66843773935943 -15.01983367975011 31.42542208349135  -23.62602552711756 -17.23712869927144 27.2890511377135  -18.07301171367722 -19.45152560144166 29.9166241306359  7.659083394003484 28.92360064807372 -26.54738719939214  11.97293701464462 31.31497151272116 -21.81791324578992  6.165648999446344 32.84036881473823 -21.98851856145827  14.91326368495444 28.17635019025058 -24.15963278320648  26.00029168454535 14.16353805405327 26.89570638800823  23.62156226763754 11.52104458404254 30.15439151647114  20.61041634261285 17.13943524453665 29.68923201570717  19.02192988141736 12.16382310337485 33.0182917652662  5.559360584328876 -24.42572549097412 31.18457061004668  11.03603061403813 -19.4894745907638 33.1416114342979  11.94971062662093 -25.66091072668081 28.26167151138341  20.1798685080628 32.71162372756331 11.07802239136628  17.452146574544 35.11090308672834 7.914989853120611  22.86495810970977 32.62498145144492 3.578306294057573  16.41238239282671 36.35242917840987 3.022349586054905  -10.7677465314438 -2.302045403286149 -38.45459948557245  -4.38612424556664 -0.1394118440822915 -39.75855226791064  -5.442748766938489 4.281360824974659 -39.39602055216189  -3.059258078670331 -4.747574549759611 -39.59926105248134  4.070620108831676 -5.591410955101921 -39.39754022094198  -22.40600737747275 30.8158050845394 12.18018843829243  -23.80823529213034 26.50877468793443 18.17836067468367  -28.74045257894489 25.33418309319387 11.49632778577358  -29.04965782139183 21.82742773730147 16.72365925367206  20.49825576433122 5.470078814292259 -33.91017175399577  13.00825033791319 4.716540500854282 -37.53051650124179  24.96131121306764 21.5542587120073 -22.63508060291019  19.49422082031237 22.98275419593832 -26.30148977107531  24.49451857030708 16.0767974067618 -27.23151015185935  35.25100337319021 -5.758274855144236 -18.00580550477946  37.70892951717559 -5.878962384031901 -11.97808148059702  20.97495638671236 26.95129446992712 -20.82495932699006  21.86483754552626 32.46679010188245 -8.236286759702628  18.22599328833919 33.36877840175752 -12.42327640470964  22.63957063641941 29.54713243611452 -14.64297805097327  5.724499338174645 -38.7000252966944 8.338953733080155  39.0994190945011 -6.041889421216823 -5.893301171190153  37.31705206870475 -11.87333547569591 -8.152394101315267  26.8664093178926 25.14230745647919 -15.68631333766237  -1.027026885078869 20.9620189950968 -34.0520039854709  15.96573572568732 31.83473462008143 -18.21112172290605  35.15195440762426 -12.93233154291638 -14.03904919103839  -27.11050960258531 -27.28632697514156 10.97618464193236  -23.51146242057757 -28.20337850794761 15.86759514177266  17.56866097168276 -6.413287714463801 35.35833554274831  21.80518893115878 -11.0594036576927 31.65791096096967  15.84542185719573 -13.58629694191485 34.12235545172137  22.12059994355968 -5.064825882283333 32.939741907294  -5.437931178100277 -30.49474064339248 25.30809549520611  -0.8234633162255885 -32.52043165637636 23.27538255431659  16.20339353098199 6.491088211537515 35.99049613314839  10.06801812277176 6.366083651591906 38.185180240775  12.59101587471143 12.47614464548291 35.85822268361544  21.06720908314858 -30.55938394764149 -14.9096195185368  23.09331396015825 -25.91647068681495 -19.87549741458115  18.67068577047733 -28.78277891152334 -20.56592159351151  -11.31099600702532 -29.83743549744388 24.1202987598606  -34.69758838383603 16.02928645925417 -11.79573380307717  -36.23761441649643 8.868951561430706 -14.42834015409693  -33.48147009306122 13.7377620559513 -17.0371668449162  12.86990747934133 23.40228323364368 -29.77748513433453  7.989502321581628 17.49714551968233 35.07160890687084  4.194277596478358 21.46229937241431 33.49295061789188  8.861995543234519 22.97459846563985 31.5219425215882  2.062539068003777 16.79382622088228 36.24518358976493  3.302254729051216 31.12151585358969 24.91076804675489  -3.237908179909204 29.35276108868883 26.9802032440238  -1.714205612298309 33.22502898399233 22.2071823546265  2.439219659204209 26.08020276844684 30.23033627022448  24.44683202128719 31.47875942942091 -3.382323004624446  19.76460609885411 34.69977240045288 -2.299160958677657  3.13190467376213 -36.26022669027451 -16.59479236038738  7.727804429952934 -34.36653829928681 -18.95315498844593  2.288118481143042 -32.92463776242246 -22.59939693950962  -38.96557139159426 8.066410704995853 -4.076427905029002  -38.12098763662057 12.07378699324774 1.006960401556874  -39.57972938554477 5.322402643481785 2.262090154636279  -36.86768450174365 14.60674937964034 -5.236097023572739  34.24785092714792 -5.420798882560009 19.9424082383921  31.33079643848202 -4.58740103385682 24.440477619821  -8.505553831218217 -21.90083269588995 -32.37296837256181  -1.249195594295447 -18.21468690827154 -35.5902330871945  -6.691809618234807 -14.78357303886607 -36.56043834854572  -27.44080449768052 -21.74904730496604 -19.3385932747557  -24.24965665925197 -20.06821261644574 -24.68240252263796  -28.60961136708747 -16.80943888920025 -22.33680598596097  -26.2488201723993 -13.97317681340474 -26.75350013172804  -15.49514408870478 35.16732608653125 11.097733353881
[...]
<PointData  Vectors="f_239-1"> 
<DataArray  type="Float64"  Name="f_239-1"  NumberOfComponents="3" format="ascii">4.6269617159795965e-05 2.3356846851715310e-05 1.2099796789786572e-04  -2.1218308575744054e-05 -2.6819589719504900e-05 -1.7026629845534936e-05  1.6692885633828482e+03 4.0152282768818513e+03 1.8533588040954683e+03  -1.2438325975247272e+02 -1.6869886033066862e+02 2.1293447637265313e+03  1.0882086167543333e-05 5.4597326366860796e-06 -1.4912474943059455e-05  -1.4162762348579183e-05 -1.1312116337993165e-05 1.6063895195855271e-05  -1.9450509464779234e-05 -9.4845610379167224e-06 3.7420421654701366e-05  1.7761866248450990e-06 2.0221411911753008e-06 6.1169856782525886e-06  5.5430664679881299e-06 -5.5371694740373937e-07 -1.5152356513579109e-05  -5.0415823346627873e-05 -1.3893535841677721e-05 -6.6558949773359459e-06  -1.3763591923823129e-04 -2.9998655909077845e-06 7.7568729463600987e-05  -1.9055589795589477e-04 -6.3233826861828785e-04 -8.3887874113838996e-04  -4.7609887643583332e-06 4.7038229076223362e-06 -5.2864973710346843e-05  1.8078232956433334e-05 -2.3574665152105346e-05 1.9037517256455446e-06  -6.7979667260262671e-06 -2.4846420507386396e-06 2.2012971004458608e-06  -1.2116489812565860e-05 1.7626543511907156e-05 -1.0330165811455503e-05  -2.9866886161479092e-06 -8.6462165591202011e-09 -3.1431396283354371e-06  2.5397213425030818e-06 -3.8720686629287231e-06 6.5237383230958097e-06  2.4158862643083171e-05 -1.6984961205057704e-06 2.3437821509222840e-05  7.0957514755347007e-06 1.4206955161803342e-07 1.5296759793293833e-06  6.8962888085518788e-06 7.7640868926268546e-06 1.4836713090691682e-05  2.3984965352375612e-05 -2.7835422771357002e-05 3.7178589880993419e-05  -1.8234646002025815e+02 1.1759039487760953e+02 2.2005945115142167e+03  -2.3427708007157349e+01 -1.9996537462059079e+00 5.3409794538119350e+01  -3.7421257998132984e+02 -3.1200956092468211e+01 8.5311875170530720e+02  2.5263730800905423e+03 -7.4837718979900023e+02 3.0662259766625527e+02  4.9971900776777702e+03 -8.0108768531423300e+02 -4.4707399836445411e+03  -7.7389328455365035e+02 -9.1848388285612984e+01 5.3986407038380105e+02  -1.2726707175241672e+04 -9.8474556398301252e+02 4.3690840918634485e+03  -9.0297350855011373e+03 -6.9873750257981908e+02 3.0999119703604797e+03  -9.3996798878022473e+03 9.5556965235728876e+02 -9.7496890244465685e+03  -6.7232087220932417e+03 3.6020949775557608e+02 -1.1219051083687700e+03  -7.8786757817828375e+03 4.2214699482481001e+02 -1.3147184584225508e+03  1.0581772506411462e+03 3.4087345439320393e+03 2.5478170560255576e+03  -3.8140185580239472e+02 2.6127263473004014e+01 -2.9685698007880393e+02  -8.9439858336434409e+03 6.1565162137690800e+02 -6.9613836011815347e+03  -1.3821900290835722e+03 -1.1927243957417782e+02 -1.5014586194184969e+03  1.1322936521920540e+03 -1.4414099662148004e+02 2.5813695177487712e+03  -2.1693968782277479e+03 2.7597016182911528e+02 -4.9457267224938951e+03  4.8754430850274122e+02 2.9758060405114691e+02 3.3028669303311253e+03  -3.2912652909112063e-05 -5.3552429917056007e-05 1.0382862274031740e-04  5.4579282764849445e-05 1.4551075741739175e-05 -7.3785029580002441e-05  7.6006178337766262e-06 -6.6803277156466564e-06 2.7995140457759917e-05  3.7828827307318576e-05 -2.1917170925161374e-05 1.1825425300508232e-05  1.0620405943981711e-04 -9.9703383408639775e-05 7.5925463225300771e-05  -1.2520681801810371e-05 5.7955740138410572e-05 4.4427159693840495e-07  -1.3812262206163111e-05 -6.0497627294001679e-06 1.4645991701274581e-05  3.7233403113819032e-05 -5.9950757312137175e-05 4.4733743877169586e-05  -5.9684631637915675e-07 -2.0875515367428451e-07 1.2681385813524287e-07  6.3142698787505737e-06 -3.4087626202446060e-06 -3.0618322305450812e-06  6.1269728956650636e-06 -4.1578686892012921e-06 -4.8173412451982583e-06  2.8705514141674756e-06 -6.5318577322505677e-07 -9.1146679607460276e-07  2.7086558668871126e-06 5.7349787693273601e-06 -9.0386486959602773e-06  -1.6679259277791941e-07 1.3114808423968896e-06 -8.6153933063929841e-07  3.2695849254647988e-05 1.4579684880681748e-05 9.9519340139009427e-05  -2.9336976318711012e-05 8.1895918534787687e-06 8.7599510573958410e-05  -2.3780758360248411e-07 2.6335831455270344e-05 6.0176086872622046e-07  1.1943825346746254e-06 1.0889937966147691e-05 -2.8229205243571403e-05  1.4238919963865407e-06 5.3482190969967974e-06 5.9729308153001803e-07  -4.1124591443973618e-05 3.5988255367480290e-05 3.7298030530871093e-05  1.5943917032778997e-06 -4.5626031892960911e-06 -3.0728291981609709e-06  1.3169411572913444e-05 1.1015462495986777e-06 -2.6155070002884467e-06  1.0885568517314390e-05 -1.2809500943675212e-05 -1.2637371108913708e-05  1.4739415566224148e-05 -2.7832379351795088e-05 6.4173694591747424e-05  6.1843912059494170e-06 1.3299750689308237e-05 2.7978906657694890e-05  1.0071362156050912e-05 2.2383349549512711e-06 6.2565423992188008e-06  -5.5921483408164933e-05 2.3431529970660869e-05 -5.5294218773059038e-05  1.5883063032727536e-05 1.6467429031466132e-05 4.5849935314876755e-06  5.3392345223186599e-07 7.8684600138580196e-06 1.2970422187929025e-07  -2.2160947774600770e-05 -6.6001104170779555e-06 8.3866177398177802e-06  3.8344207541554605e-05 -3.4692058695078570e-06 -1.1816693176460054e-04  5.3457189360158874e-05 -1.2857850953286950e-04 1.7016290401470634e-04  2.8054929140150757e-05 1.1327377869960130e-05 -2.1234992874933122e-05  -1.5058284539530425e-05 -1.7450802874847596e-05 1.9682350244755953e-05  -9.5724171420994774e-07 -3.8029938221652592e-06 -1.9883005011561062e-06  1.4950770632970636e-05 -2.0428645544762734e-05 -1.6936778868310025e-05  4.5273476124386084e-05 -8.0013924243980999e-05 1.6819417387600535e-04  6.1209192671411316e-06 -3.2561502094849505e-06 -2.7997080582178258e-06  3.5907785923096789e-06 1.2566991317395018e-06 6.7220242509504369e-06  1.7957308092096063e-05 1.6453647082976177e-05 2.6077871698216127e-05  -8.6212135640521588e-06 -5.9295077342923281e-07 3.6723552003767017e-06  -1.6435871730764769e-06 -2.7835880582209960e-06 5.2412869881227240e-06  7.7385236126797084e-07 -2.4383870905850310e-06 -1.7843404532119519e-06  1.4968620750901732e-06 -1.7137107747369497e-05 6.4000715655700905e-06  8.4689396986034421e-08 -8.0853650820389185e-06 -2.6579165766142907e-06  -8.3249627294300219e-05 -7.5517528316054237e-05 1.1426237876089662e-06  -5.3758672971846478e-05 -1.4955409256008193e-04 3.9692959531997408e-05  -8.7065722986897888e-07 -7.7482291479404426e-06 -4.6472443784161608e-06  -1.0459400550663883e-05 -6.2692752667194953e-08 5.8180197793606343e-06  -1.3625346782538442e-06 9.3871291051056228e-07 -1.0471956312903543e-06  2.9733107933526809e-06 4.1418277469033017e-06 2.4143700687565427e-06  3.3321218170647774e-06 2.9330538677695116e-06 3.0832399370872629e-06  -2.3205477916638544e-05 2.6080252747025285e-05 9.3445355781559034e-07  -1.5334965414321540e-05 -1.2394927208127492e-05 1.2138522596168630e-06  2.0164699668127450e-05 -1.8298253845319740e-06 5.1980983011470381e-06  1.9918183298233742e-04 -3.1238824263752943e-05 -5.4502721465006539e-05  -2.5235785245795275e-06 1.4214501762529343e-05 -8.6684072027994377e-06  -6.0978152991182441e-06 -5.0320469713088711e-06 1.0037307637376793e-05  3.6449812635630678e-06 1.7389230743977786e-06 1.6947932745720045e-06  1.4786734457997638e-04 3.3634500188409568e-04 -2.1996323492907649e-04  2.8767945032872071e-06 -1.7649691341879906e-05 1.3000500681549454e-06  2.7465125278434117e-05 2.0011417705227577e-04 -1.6464078170566366e-04  3.3471248535062714e-05 -3.2538446487773998e-05 4.7531274856565170e-05  -1.5040417747633792e-06 8.4304467825649789e-06 -2.1192292203510910e-06  -1.0016251731238609e-05 -5.9504999219204157e-06 -1.7178754780637358e-05  -1.9358204137833899e-06 -1.5559660638916805e-06 -2.9361335311002289e-06  2.8917210785202499e-05 1.8891804990010803e-05 2.9652243106808576e-05  -2.9325387744960315e-06 -4.3055588078057088e-06 1.6590635982200579e-06  8.1316854837771413e-06 -9.4404493125868494e-06 1.1575168388713509e-05  -1.5028584382584130e-05 4.4742948680880416e-06 -2.5696938768414431e-05  6.4096183272431481e-06 4.9070176530142905e-06 3.3434917436912128e-06  -5.8382890529182292e-07 -4.5358322107111981e-06 1.0647562756999129e-06  -1.7738761221251752e-05 -3.2846015678626688e-05 2.2465767727192206e-05  -1.4440134784798825e-06 -3.0115317306052745e-06 -1.1227671521989917e-07  1.8052314695499676e-05 -2.4718753502705888e-05 -1.8333630897668613e-05  1.9063080352557687e-06 -7.2729737914110583e-06 5.2270943820367143e-06  2.8525960938651820e-06 -3.6036857407600273e-05 -3.2702859402130340e-06  1.2562399216509894e-04 1.5269996470290402e-05 -4.3653476843646190e-06  -8.3064436404427345e-06 5.1523907152385968e-06 1.8320379717122560e-05  8.7547294322460820e-06 -8.2559059028763187e-06 -6.2596620671582462e-07  1.0409833736360373e-05 -6.7990388824054118e-06 -7.8744026486112976e-06  -3.0870571511319410e-05 4.0963277172040806e-05 3.1888373566785324e-05  2.8561074413718998e-06 -6.8499476037366098e-06 -2.7636999697496810e-06  2.7851362036186794e-05 2.1476751078558650e-05 -3.7093846909022313e-06  5.5773286763800258e-06 -5.0788928073212606e-07 -6.1778477325130778e-06  1.0438521610226645e-04 2.9478261340465339e-05 -6.0106193123116291e-05  7.9729372443652194e-05 1.5304552835281358e-04 -1.3802296302809991e-04  -4.5860162374231205e-05 -5.2723110591046442e-05 4.3496161249367427e-05  1.5602374768360088e-04 1.1714645811224893e-04 -2.8677050154487740e-04  -4.1442063554283210e-04 -2.0469442875735010e-04 -4.2840474039326269e-05  4.6768858335345352e-06 -1.8686704466471604e-06 -1.5356359300929748e-05  -1.2599579937594310e-05 -4.5952818126532212e-06 -2.3465499753588786e-06  -5.2464105647441956e-06 -1.6388794004841801e-05 4.7368987924159374e-06  2.7283922857683734e-05 3.3369034343552936e-05 -2.4759133960427313e-05  1.1240650886016322e-06 -3.6328516785884684e-08 3.4054881742234462e-07  -1.7142821630521472e-05 -3.6069193429611964e-05 -1.6000090412832612e-05  2.9018854475966135e-04 -6.0502320258969339e-06 -9.5959413182249869e-05  6.1442625086967995e-06 8.2599299030932177e-06 1.5343416608788583e-06  -2.5100733448644281e-05 1.9178258434812895e-05 8.8877176874019577e-07  -1.0485164899845124e-05 -2.1259045957392789e-05 4.0520135447525917e-06  -9.3387899210557149e-05 -9.2223969622272943e-06 6.7716850765065669e-05  -6.2724765033857124e-05 -4.3249493915466183e-05 -1.9103718773839889e-05  -1.4112856032768132e-07 6.0678863967048400e-06 -2.5533786502832747e-07  4.4659502242944195e-05 -1.2029432207762050e-05 2.3184961749032241e-05  8.3677579361497212e-06 -4.6822597223952326e-06 -1.0981998039952944e-06  -3.2483907956336271e-06 3.1322488426687463e-06 5.3665167317227072e-06  5.4862883496339613e-07 -6.8700395118518612e-06 9.9451176241079944e-06  3.9826026547699372e-06 3.1620700045185889e-06 6.0019998752581044e-06  -3.7488285239133787e-06 -7.8375217677535211e-07 2.3462031366776662e-07  6.3162263806928231e-06 1.3313267504741024e-05 2.0492687320039638e-05  -7.4354690127742158e-05 1.1510413664182167e-04 1.0675399690717801e-04  -1.5372952233852771e-05 7.1587954061550388e-06 -8.4980811510756166e-05  3.3779339168819189e-06 -5.8113425719847733e-06 -5.9244776789818885e-06  5.3022174724453747e-06 1.6499502943566489e-06 -1.2608851433878234e-06  1.2356806206383004e-05 -2.7586220367872038e-05 -1.1598556985956692e-05  7.1894947151456998e-07 -1.6388465264045473e-06 -3.8548293263156924e-06  -1.2884456017271743e-05 -1.3916602883237772e-05 1.4615277366207066e-05  4.5492708734292490e-05 -2.2813373536512038e-05 1.4971829178701952e-05  5.4279602915523137e-05 6.5571954469674788e-06 5.8965943333694505e-06  1.9722875762215146e-04 -9.1717441505905487e-05 -3.7440243740491895e-06  9.6770494084415996e-05 7.6032909455867894e-05 7.6030321297256015e-05  -4.2401910017344611e-07 -1.4071364841205597e-06 -9.1767886467639319e-07  6.4432312564915445e-07 3.0567480215235489e-06 2.7782285319164818e-06  -4.6683958092663467e-05 1.2990397364917900e-04 1.0282276560329667e-04  -1.6549450147168072e-06 1.6049601593414151e-06 -3.0430187166050253e-07  -2.4062124621094481e-06 -2.9246953813618293e-07 3.2034014015769726e-06  -1.6460655374492807e-06 -4.4449452100923773e-06 -5.6165056418101738e-07  3.4244012117539072e-07 -2.2064606786899357e-06 -1.1586203949546928e-06  3.8836438134448939e-07 1.3644450589967128e-05 -8.4507302443400171e-06  -1.6155626342569187e-05 -8.9644445585486674e-06 2.1314051378425013e-06  1.7011225278012343e-06 -6.3096147984379400e-06 2.6796419803311661e-06  1.7566100803745175e-06 -2.9318466211072366e-06 6.8517224995006227e-07  1.4588220285317361e-06 2.8741676637992557e-06 5.9772469292109404e-06  -2.1963892527936005e-05 4.6418079633291362e-06 -2.9401132646061680e-06  -1.0474717915886243e-05 8.9178957780537192e-06 1.1893545541579108e-05  -2.0573750490582208e-06 3.8967909824301371e-06 4.5107764382442898e-06  -1.7724735760537618e-05 1.8185040667849537e-05 -2.3266893846663905e-05  -6.0926340685309230e-06 4.0320605755685545e-06 -1.1171189991109864e-06  -2.1215938112122587e-06 1.1479177254485394e-06 -2.0398719317851873e-06  -2.1950736494052815e-06 4.6616233514457080e-06 -2.5466825490833699e-05  -2.4722962046872413e-06 -2.6500591165059605e-06 -1.3524963043842505e-06  -7.6091544113555550e-05 -4.7380468149949833e-05 2.9977337662430434e-05  5.1199818786738043e-06 -1.3611180223249348e-05 -9.0128427798942675e-06  -1.6409883178718565e-05 -2.2845975197126027e-05 1.8976789629495382e-05  -1.7349051621388810e-05 -5.7211501153044659e-06 1.8789114733295353e-05  1.1042245245113324e-05 5.2503817576656395e-06 2.9256586204668021e-05  -7.8011856520520121e-08 -3.6174131590107886e-05 -1.0215632037947117e-05  -1.0346093103962144e-05 1.0438722360634009e-05 1.7537454809903888e-05  -4.8509973113065801e-06 -4.0652751940488716e-06 -4.6641851024053541e-06  -2.4638658806186894e-05 -3.2168617542660594e-06 1.3755514551638898e-05  6.5926133964088841e-06 -8.2619094377165889e-06 -8.3915750642789208e-06  5.4457573329314455e-08 3.6402003273046243e-07 1.5882082183665923e-06  -3.7241950080777351e-06 -3.1853334791316300e-06 -8.5990078625412914e-06  2.4740668571547992e-06 -2.0953710117971498e-06 -4.3885051716354143e-07  2.6778735918887193e-07 1.4392536056310085e-06 1.6001997448311836e-07  -3.2919506903341012e-08 8.6862884452863020e-08 -1.3648534741309554e-07  3.8770106232259885e-07 3.2038109858568620e-06 -7.9016080891361990e-07  -7.2135117503098596e-07 -1.1969618188215401e-06 1.1335027357166971e-07  2.5367556071299307e-07 -1.9791779060801967e-07 -8.4829151425064152e-08  -1.9447089834954620e-06 5.6502350808184057e-06 -6.6386227471672038e-07  9.5356917355109678e-06 -7.2580308760378653e-06 5.5286247216962741e-07  -1.0429543719277509e-05 4.6725853899459149e-06 1.1732439957251593e-05  -1.3408456787662626e-05 -1.6165163502889872e-05 -7.9693484850748740e-06  2.0648541894087182e-05 -8.6842452052852487e-07 -3.4215147445997954e-05  -1.3262716193630556e-05 3.9552169285678791e-06 -1.2763135548420524e-05  2.1479408778791147e-05 6.6177988568671846e-07 1.9445899412977161e-05  -3.0871355815204391e-05 -2.2285310650557842e-06 -3.0645566408755648e-05  -3.9219633317580377e-05 -1.5480520338801071e-06 -1.1249218850746492e-05  2.9240739286567160e-05 -2.0537154514051237e-06 6.4983136682958476e-06  3.1763148303334356e-08 1.0042957950407571e-06 5.8105035941990733e-07  -2.6886081294327493e-06 2.6496479704287638e-07 -6.9912101206414618e-06  4.8087193574405910e-06 1.0303356668545763e-05 5.9969226046083234e-07  1.6778738340840187e-06 9.8805236949297291e-06 3.0155835825877832e-06  1.7887943491979100e-05 -2.9448788425038286e-05 3.2834216490639356e-06  -2.8180476992705704e-05 1.8355491390341960e-05 -1.0589308605657144e-05  1.7153804534108354e-06 4.4483897483595343e-06 -9.3949238264362502e-06  9.5551746843276782e-07 -9.2044969755175374e-07 -6.1778503710747268e-07  -2.6524262912282123e-06 -2.9252353363651210e-06 2.2611684681201408e-05  1.8410721872619353e-07 -1.9810476087367451e-06 3.9924335308617174e-07  7.2720938719284618e-05 4.4632875589572027e-05 -2.0209249374171685e-05  1.5055854066854545e-05 -1.0455448055112295e-05 -1.5076998097690691e-05  -3.8174287701652189e-06 -5.3124254220926386e-06 -1.5232100542497175e-06  1.0405478048664977e-05 4.2746579113454237e-06 2.0283267615132120e-05  -2.8990969995612869e-05 -2.4094264723723130e-05 6.0316148611621357e-05  -2.1116411015162490e-06 6.7769814998425348e-06 1.6607103369414960e-06  -5.7181092921675501e-07 -2.4501934964234589e-06 -2.3520919371667149e-07  1.0450453940210730e-06 3.0319834057345264e-06 -1.5589784609205764e-06  5.4130451540410711e-07 2.4743777616306954e-09 1.5775699452007895e-07  -6.2534122576780107e-07 1.6356098459673740e-06 5.4960517323008297e-07  2.4400809433212493e-06 1.8034237872322132e-06 -9.3575676227722226e-06  -4.2132093080745649e-05 -8.2471544125075597e-06 7.7881066484834072e-06  1.7206510163739865e-06 -1.1069369590582008e-05 1.5889376748682929e-06  3.0724972711556429e-05 1.4935659134501213e-05 -2.1293769222761457e-05  -1.4110129064903068e-05 -1.2832041196197778e-05 1.2222692353110365e-05  1.9760581170196715e-07 -6.7750668780477211e-06 2.2498710722928749e-05  -3.3120103407766831e-06 6.2633613754398839e-06 2.7643923163353534e-05  5.0526972696184544e-06 4.3753935791503799e-06 -1.7672813615122792e-06  2.1468450758136263e-05 -5.5863679129923105e-05 5.2975767377997667e-05  -5.6851709564457768e-07 -3.0911245472620681e-05 1.2235431560730666e-05  8.9392531022999204e-07 -2.5249770651081912e-06 -1.2064032880964441e-06  9.4988086505059737e-06 -7.8797682936873456e-06 -3.3288232220269682e-06  -1.1387610366144607e-06 -8.1766343723865646e-07 2.8261713114047352e-06  -2.8955493365533784e-06 -2.5852531741010890e-06 1.1077279216380135e-06  4.8296147703349968e-06 7.5239600353046153e-06 -9.7285300927444687e-06  3.5692512744008337e-06 -5.7858616755699540e-06 5.1914138410605879e-06  -6.0779494865489070e-06 9.4774564398843909e-06 2.5333380140862720e-07  -6.4317417729345595e-06 3.2567898365369864e-07 -1.6252359057701556e-05  -3.2920841445346400e-04 -7.7819699658738389e-04 -6.1853434247984224e-04  -4.4179183725833807e-05 -3.2748442490896909e-06 -1.8712544036164280e-05  3.1236944701138691e-05 1.8826533248452596e-05 -6.7634720217062719e-06  -4.6902890631167597e-05 -8.6610104350070223e-06 -5.4055866866943343e-05  -3.5548447528389563e-05 -1.8476121891911421e-05 1.1477107504486484e-05  1.8676345774593439e-06 -4.2155028406496326e-06 4.6050688973620688e-06  -9.6897790338850779e-06 -4.4219499211380694e-05 -2.1116794618399874e-05  -9.0189969444226867e-06 2.4449749700409269e-06 9.7356295849474362e-06  2.5499969604420395e-05 -1.4830516768881581e-05 3.0896224936075519e-06  2.8492691434384458e-06 1.4642495880785935e-05 9.6749360796187910e-06  2.0664495318775397e-06 -1.2947068207156059e-07 7.8122175305088472e-08  -4.2877251609017370e-05 2.4069866834445087e-05 -3.8244890908202634e-05  4.1377765512108813e-06 -2.2980485856375524e-05 1.0136828088060633e-05  -3.3819874010699322e-06 -5.4709521547480373e-06 4.0484122445391543e-06  -4.0935750324553466e-05 -8.2908085953381206e-06 3.4866099078305546e-06  1.7721605095069079e-06 -1.2688791153982523e-05 -3.5108093300972603e-05  -5.1929140535727854e-05 3.0136495007407515e-05 3.3682451427014517e-05  -1.8569477874168731e-05 -1.2924892876453031e-05 -1.8483161885246628e-04  -8.8762427585269453e-06 2.0381336732504792e-06 2.5533721795014164e-05  -3.6798652432530042e-05 -1.2131230373612910e-05 -1.5387158490213294e-05  -6.5961380759387657e-05 -6.8146220276925180e-05 2.3905828947912082e-05  -5.4264592528691096e-06 6.4247657307742879e-06 -9.5012426959166939e-06  -2.4039742997488209e-05 -2.3846914114498894e-05 -8.6553052981518081e-06  1.6463439756131217e-05 2.1360660297137942e-05 2.3674190350564521e-05  1.9387626676700905e-07 5.0241251390932208e-07 2.7819261547971366e-07  5.8602135907747520e-07 3.2882674140573586e-06 5.1463801966693340e-06  1.0072722923897719e-07 -4.8088936924288204e-07 1.5185544150185999e-06  -8.1807028340839547e-06 1.7936292023514275e-06 -2.7244352485006290e-05  7.3183967934446997e-06 5.2949882042597682e-06 1.3423571527418602e-05  1.3081405438482468e-07 2.0052216298366418e-06 6.0545301363078510e-07  1.8693347418422907e-05 2.4534866534946641e-05 1.5541434004304360e-05  2.36631296