<?xml version="1.0"?>
<VTKFile type="UnstructuredGrid"  version="0.1"  >
<UnstructuredGrid>
<Piece  NumberOfPoints="2306" NumberOfCells="11125">
<Points>
<DataArray  type="Float64"  NumberOfComponents="3"  format="ascii">2.449293598294707e-15 0 -40  2.449293598294707e-15 0 40  6.123233995736766e-16 0 -10  6.123233995736766e-16 0 10  6.58378361122935 0 -39.4544521361089  12.98797876818733 0 -37.83268966802539  19.03789572148294 0 -35.17895004825957  24.56850850758671 0 -31.56562037585575  29.42895642692527 0 -27.09126286502964  33.48665913050114 0 -21.87792632489708  36.6309330662023 0 -16.06781698611878  38.77601063757321 0 -9.819419485631968  39.86337972026679 0 -3.303173818893296  39.86337972026679 0 3.303173818893289  38.77601063757321 0 9.819419485631968  36.6309330662023 0 16.06781698611877  33.48665913050115 0 21.87792632489707  29.42895642692527 0 27.09126286502963  24.56850850758671 0 31.56562037585574  19.03789572148295 0 35.17895004825956  12.98797876818735 0 37.83268966802538  6.583783611229359 0 39.45445213610889  1.645945902807338 0 -9.863613034027225  3.246994692046834 0 -9.458172417006347  4.759473930370735 0 -8.794737512064891  6.142127126896677 0 -7.891405093963937  7.357239106731317 0 -6.772815716257411  8.371664782625285 0 -5.469481581224269  9.157733266550574 0 -4.016954246529695  9.694002659393304 0 -2.454854871407992  9.965844930066698 0 -0.8257934547233241  9.965844930066698 0 0.8257934547233223  9.694002659393304 0 2.454854871407992  9.157733266550576 0 4.016954246529694  8.371664782625288 0 5.469481581224267  7.357239106731318 0 6.772815716257409  6.142127126896678 0 7.891405093963936  4.759473930370739 0 8.79473751206489  3.246994692046838 0 9.458172417006345  1.64594590280734 0 9.863613034027223  15.53588175341682 10.47570570671982 -35.33972224126907  22.52105177297604 10.76850249609674 -31.25446497751147  17.11199790951345 17.00083928873432 -31.90847835644055  -29.72657234906893 15.91711488703517 -21.51688523110382  -25.14992024955119 21.79628461017795 -22.19016648502969  -30.27309326250051 20.53672076911706 -16.17970717816803  -20.89355786170783 9.389879430176292 32.79160569667516  -21.50254498059339 3.757507031415958 33.51897522697282  -26.64996019884904 6.885284446091766 29.02365379300423  31.47556685883051 5.378936358232429 -24.09057356248239  35.08592513857359 5.349065357770876 -18.44899338632612  -7.137647015307699 -33.35587867819428 20.89113095766847  -10.48955743399326 -35.4140774700041 15.35618122410337  -13.01355430879985 -32.45546050027133 19.42396684426855  -11.43657062454909 -0.03685808298520405 38.3301903704041  -9.609585094508281 5.8692532341686 38.38238841949008  -4.568537977596148 3.31758443605268 39.59952138924059  -31.49222771933744 7.502498447505969 23.49366106673384  -32.73069959859194 11.7537767857384 19.7623388053583  -28.45303385594115 13.81215824501363 24.48773466467179  -18.8285579036339 27.81333248817475 -21.72335018296553  -24.48443087076404 27.10945119764579 -16.29694145222467  -31.36177321271318 16.57677189054089 18.48377165632921  -24.85129112667903 16.54764152587408 -26.61933299818408  10.01383607118345 -5.776818396636194 -38.29296875866052  15.75720863583826 -6.709798929918917 -36.14815312469951  -13.13329918173097 19.7415129756288 -32.21473448650826  -13.18801353993143 26.40945069928093 -26.99291041427055  -19.02544974766931 21.93827224377989 -27.50898894646451  -12.21316547777416 13.03275705454818 -35.79086241723759  -5.268738096262525 10.32620788308489 -38.28328394519346  -6.839409365138239 16.92417126160453 -35.59206241065469  -35.55718524879826 -4.577150679538526 17.74080800976787  -32.39241844245679 -5.673745030375088 22.77146997405041  -33.9790102328028 -11.06481664687723 17.97210884036906  -0.9816453653123123 14.90369757509052 -37.10682108409452  -7.27663286510801 23.99763105753954 -31.16350939436449  -34.17260777354002 1.536783648492278 20.73333484930774  30.181834640201 10.87004961476731 23.89349030853508  31.55530342902033 5.025258804421209 24.06261829999065  26.94926920827491 6.863254908511189 28.75121947328014  3.575597975181185 -37.46834474991199 13.54024522752903  -0.3086621438491544 -38.86705156830128 9.44759387717124  -2.106977156120542 -36.25648010904121 16.76389863266554  -25.10570013831043 -0.01600106960048824 31.14006365650224  -20.30168545525158 -34.30786828474635 3.288121261833596  -14.95504926646267 -35.76858592320193 9.846560947467664  -12.2624563887404 -37.96464240969074 2.884109917903714  -21.37792074566657 -32.01742957819189 10.85673559581894  34.00448323044128 -10.96281072669066 17.98643658986943  33.16287720395623 -17.27064686291152 14.21085263071589  29.49947274051343 -15.85899153871744 21.86946490901398  -34.27212094955226 -20.60482370410059 0.9289594943783835  -29.63185364883944 -26.78806146492992 -2.086387376518965  -33.19294097623149 -21.37395227419811 -6.432949053794337  -24.04382034957743 -11.12409314825994 29.96913836976437  -19.66843773935943 -15.01983367975011 31.42542208349135  -23.62602552711756 -17.23712869927144 27.2890511377135  -18.07301171367722 -19.45152560144166 29.9166241306359  7.659083394003484 28.92360064807372 -26.54738719939214  11.97293701464462 31.31497151272116 -21.81791324578992  6.165648999446344 32.84036881473823 -21.98851856145827  14.91326368495444 28.17635019025058 -24.15963278320648  26.00029168454535 14.16353805405327 26.89570638800823  23.62156226763754 11.52104458404254 30.15439151647114  20.61041634261285 17.13943524453665 29.68923201570717  19.02192988141736 12.16382310337485 33.0182917652662  5.559360584328876 -24.42572549097412 31.18457061004668  11.03603061403813 -19.4894745907638 33.1416114342979  11.94971062662093 -25.66091072668081 28.26167151138341  20.1798685080628 32.71162372756331 11.07802239136628  17.452146574544 35.11090308672834 7.914989853120611  22.86495810970977 32.62498145144492 3.578306294057573  16.41238239282671 36.35242917840987 3.022349586054905  -10.7677465314438 -2.302045403286149 -38.45459948557245  -4.38612424556664 -0.1394118440822915 -39.75855226791064  -5.442748766938489 4.281360824974659 -39.39602055216189  -3.059258078670331 -4.747574549759611 -39.59926105248134  4.070620108831676 -5.591410955101921 -39.39754022094198  -22.40600737747275 30.8158050845394 12.18018843829243  -23.80823529213034 26.50877468793443 18.17836067468367  -28.74045257894489 25.33418309319387 11.49632778577358  -29.04965782139183 21.82742773730147 16.72365925367206  20.49825576433122 5.470078814292259 -33.91017175399577  13.00825033791319 4.716540500854282 -37.53051650124179  24.96131121306764 21.5542587120073 -22.63508060291019  19.49422082031237 22.98275419593832 -26.30148977107531  24.49451857030708 16.0767974067618 -27.23151015185935  35.25100337319021 -5.758274855144236 -18.00580550477946  37.70892951717559 -5.878962384031901 -11.97808148059702  20.97495638671236 26.95129446992712 -20.82495932699006  21.86483754552626 32.46679010188245 -8.236286759702628  18.22599328833919 33.36877840175752 -12.42327640470964  22.63957063641941 29.54713243611452 -14.64297805097327  5.724499338174645 -38.7000252966944 8.338953733080155  39.0994190945011 -6.041889421216823 -5.893301171190153  37.31705206870475 -11.87333547569591 -8.152394101315267  26.8664093178926 25.14230745647919 -15.68631333766237  -1.027026885078869 20.9620189950968 -34.0520039854709  15.96573572568732 31.83473462008143 -18.21112172290605  35.15195440762426 -12.93233154291638 -14.03904919103839  -27.11050960258531 -27.28632697514156 10.97618464193236  -23.51146242057757 -28.20337850794761 15.86759514177266  17.56866097168276 -6.413287714463801 35.35833554274831  21.80518893115878 -11.0594036576927 31.65791096096967  15.84542185719573 -13.58629694191485 34.12235545172137  22.12059994355968 -5.064825882283333 32.939741907294  -5.437931178100277 -30.49474064339248 25.30809549520611  -0.8234633162255885 -32.52043165637636 23.27538255431659  16.20339353098199 6.491088211537515 35.99049613314839  10.06801812277176 6.366083651591906 38.185180240775  12.59101587471143 12.47614464548291 35.85822268361544  21.06720908314858 -30.55938394764149 -14.9096195185368  23.09331396015825 -25.91647068681495 -19.87549741458115  18.67068577047733 -28.78277891152334 -20.56592159351151  -11.31099600702532 -29.83743549744388 24.1202987598606  -34.69758838383603 16.02928645925417 -11.79573380307717  -36.23761441649643 8.868951561430706 -14.42834015409693  -33.48147009306122 13.7377620559513 -17.0371668449162  12.86990747934133 23.40228323364368 -29.77748513433453  7.989502321581628 17.49714551968233 35.07160890687084  4.194277596478358 21.46229937241431 33.49295061789188  8.861995543234519 22.97459846563985 31.5219425215882  2.062539068003777 16.79382622088228 36.24518358976493  3.302254729051216 31.12151585358969 24.91076804675489  -3.237908179909204 29.35276108868883 26.9802032440238  -1.714205612298309 33.22502898399233 22.2071823546265  2.439219659204209 26.08020276844684 30.23033627022448  24.44683202128719 31.47875942942091 -3.382323004624446  19.76460609885411 34.69977240045288 -2.299160958677657  3.13190467376213 -36.26022669027451 -16.59479236038738  7.727804429952934 -34.36653829928681 -18.95315498844593  2.288118481143042 -32.92463776242246 -22.59939693950962  -38.96557139159426 8.066410704995853 -4.076427905029002  -38.12098763662057 12.07378699324774 1.006960401556874  -39.57972938554477 5.322402643481785 2.262090154636279  -36.86768450174365 14.60674937964034 -5.236097023572739  34.24785092714792 -5.420798882560009 19.9424082383921  31.33079643848202 -4.58740103385682 24.440477619821  -8.505553831218217 -21.90083269588995 -32.37296837256181  -1.249195594295447 -18.21468690827154 -35.5902330871945  -6.691809618234807 -14.78357303886607 -36.56043834854572  -27.44080449768052 -21.74904730496604 -19.3385932747557  -24.24965665925197 -20.06821261644574 -24.68240252263796  -28.60961136708747 -16.80943888920025 -22.33680598596097  -26.2488201723993 -13.97317681340474 -26.75350013172804  -15.49514408870478 35.16732608653125 11.097733353881
[...]
<PointData  Vectors="f_135-0"> 
<DataArray  type="Float64"  Name="f_135-0"  NumberOfComponents="3" format="ascii">-1.8043746945421013e-10 3.6824235103229546e-11 -1.2335788317849914e-09  -1.6784088803410612e-11 -2.8773148746575251e-11 3.5296653137776414e-14  -3.4389165328232391e-01 6.8689873214920927e-02 2.0971596192529998e-01  -3.1029041689807024e-02 9.5789112638116602e-01 5.3155827092793051e-01  3.7944196236006150e-11 -9.1051914765298757e-12 -5.6019132671914140e-12  1.3650634849314032e-11 1.5415521033129223e-11 -1.4695228021460370e-11  -6.4665425257807017e-12 2.8682036978628779e-12 1.2169866058636385e-11  -1.6817383757322600e-11 -2.9660313987196948e-11 -2.4361976077807937e-11  -2.4611508938761116e-11 -1.5708113706940973e-11 2.0184742475139574e-11  4.5580305068002260e-10 1.0075769575184565e-10 3.0143240745769104e-10  -1.7220392949183869e-09 2.8985688492711386e-11 9.4609334229134135e-10  -1.1221566106403418e-09 -3.2218290500495468e-09 -4.2937348670902009e-09  -6.7920734721027109e-11 3.7376370409473541e-13 -3.7166260902378974e-12  1.7039496605231302e-10 4.1360915518477510e-11 3.4322071846270982e-11  -6.4980717068359355e-11 5.8192139458814944e-13 -9.3238495278551866e-12  -4.5725903086531349e-10 1.5665389689172112e-10 -1.5860747495659101e-10  -1.6808040233374716e-11 4.2457148820709633e-12 -2.9224411237837908e-11  -1.9052302805042027e-11 6.3149607816072574e-12 -2.0539388136146901e-11  -2.8996195858661514e-11 -6.2650131792572478e-13 -4.0557555217418327e-11  2.8216145324978084e-11 3.7884702109632279e-11 -5.3695685192157232e-11  9.9449312502346414e-12 7.5025773203134628e-11 3.8028791834471560e-11  -1.1001308625193026e-10 8.5175785393318992e-11 -2.8469571833429365e-10  -8.0701991300483941e-03 1.0048934339177427e+00 9.7392819747848663e-02  -9.5900252118136881e-02 9.9075255568858234e-01 2.1863055319874880e-01  -1.3086943600320169e-01 9.8632722521624494e-01 2.9835226246268715e-01  6.9800867019893881e-02 8.3322400056592127e-01 4.7424029807394286e-01  4.2607920278280104e-01 9.2504682659390380e-01 -3.8117785079484889e-01  -4.0782240030446892e-01 9.4304131622481047e-01 2.8448233830174019e-01  -3.7513687964156772e-01 9.6064919224120693e-01 1.2878465344922513e-01  -2.9333426029830545e-01 9.6574075638313173e-01 1.0070177875712161e-01  -1.2713704811181330e-02 2.5251845236480391e-01 8.7945258801806897e-03  6.8992711948216601e-02 9.8407544969192595e-01 1.1512847387968643e-02  2.3348235111746024e-01 9.7591420684386221e-01 3.8961313453180116e-02  3.4245883406861570e-02 2.9431369844921756e-01 -4.8150294968674803e-02  2.3317916672117805e-01 9.7532354042088765e-01 1.8149063041267532e-01  2.6630685231134854e-01 9.7499891012144135e-01 2.0727494307840391e-01  -3.5992161826406976e-01 9.6432403977673664e-01 -3.9097910177802797e-01  1.2047738429850142e-01 9.8188105197728848e-01 2.7466077090884039e-01  1.0833393628749532e-01 9.8495322814604636e-01 2.4697649795076737e-01  -2.9553980533380431e-02 9.8165094804437858e-01 -2.0009905203739350e-01  -3.1715763617280571e-10 6.3953702147907468e-11 7.3754520252693986e-11  4.6330938321127510e-10 -7.5951482225439697e-11 -3.7444453231141515e-10  8.2570909567554419e-13 2.8623863731091249e-11 -1.2746453250220443e-10  5.6211551020239380e-10 -2.5558051449734362e-10 2.2377153111792194e-10  3.2561046904054726e-10 -3.8413665303432921e-10 2.4360623884520432e-10  1.3124858856950069e-12 2.2648099745909889e-10 -6.5671517296075246e-11  -2.1115675005044261e-10 -8.2468032432763760e-11 3.2066328325846439e-10  1.9786167009746462e-10 1.8913242201722455e-10 -3.5528628714629994e-11  -9.2838660118650914e-12 1.3543038803763645e-11 -1.5060461278693982e-11  8.0111982806557981e-11 1.1047360554051945e-10 -6.0183705370063861e-11  -1.5627916101489459e-11 -2.4210498371486137e-11 4.8493501060701154e-11  -3.3021983909784081e-12 -2.9640176438356241e-11 1.2668912158523169e-11  -1.7359837530773428e-11 -1.6859908336044234e-12 1.8644542679789223e-11  -1.6572998928527269e-11 -2.2480615699428153e-11 2.8278687765753421e-11  1.4707721030988267e-10 -2.6192304304200909e-11 2.2258924956420204e-10  1.2138834752357781e-10 -4.3644445644184458e-11 -3.0683845250088051e-10  -1.0608143374827838e-12 -4.6730305170342588e-11 -1.8848847547365814e-11  -7.0288199162548226e-11 -7.6872661438190108e-11 3.0311575638141783e-10  3.0168839133777859e-11 6.2960208529133530e-11 -1.2046809369445011e-11  -3.0981832345636614e-12 9.9717147917743771e-13 1.6381135680748117e-11  1.2403104154969602e-11 -2.4148691610809428e-11 2.3324151194833064e-11  2.6366699155210664e-11 3.2778459760378546e-10 3.1694985001154334e-10  -1.5096809348143160e-11 1.1039211588705957e-11 4.2759443368844255e-12  -8.6790545028530488e-10 1.2335991795587223e-09 -1.0510443318237881e-09  8.9937191996357674e-11 -2.9745888906484103e-11 -3.1865612502865966e-10  -1.3349160016882715e-11 -2.7352922302965916e-12 -7.2996222882998760e-12  -1.1646484576052697e-10 1.6840178921204488e-10 4.1652364256721029e-11  9.3786136664391118e-11 5.2882529577994232e-11 5.7779955016321940e-11  -2.0981833814140070e-10 2.0870207190554421e-10 -3.0647437887083167e-10  1.3403103606183031e-10 4.6930161596280798e-11 -9.0899041221115149e-11  -8.0905230659725841e-11 1.3965673119981920e-10 4.6828485382641395e-11  -5.5371665210316807e-11 5.0837731457151380e-11 -7.3220017297055961e-11  -4.1668953546268920e-11 -1.4078583088913055e-11 2.9636257385379433e-11  2.0493134209152442e-11 4.5860966349364649e-11 -1.3433235749918188e-11  6.0969351895974914e-12 -4.3148059212319495e-12 -7.7579673002014189e-12  5.7241219839429800e-11 8.8205176937482167e-11 -2.2642182657687569e-10  -1.5907486477733447e-10 2.2461009842984102e-10 -3.1098977816232819e-10  4.3193510427648201e-11 -3.6658577321799171e-11 -5.5226552055878137e-12  -1.8628414493050593e-10 -5.7013582950331500e-11 -2.1447457695962269e-10  4.1503408171137841e-10 2.0535711924093646e-10 3.7808361200801072e-10  -7.1833372870533931e-11 -1.9455624501706788e-11 -3.1314184678349693e-11  1.1760909946983192e-10 -3.2604778054396833e-11 2.1683467233241393e-10  1.6368528008377134e-11 1.4118925350511180e-11 1.2392768443662831e-11  1.5735354039339116e-10 -1.6031870843746475e-10 5.2801752777884485e-11  -1.1271261452562838e-11 5.5734618439062249e-12 4.7042583577036579e-11  2.6025277515161813e-10 1.4640409040215417e-10 -4.3371801533398552e-11  -1.0979994784504698e-11 -1.7055812625228336e-10 4.2783136199258388e-11  1.2700377353349702e-11 6.7685181611125138e-11 1.1317146036440912e-11  2.0120669588857990e-11 -1.6956613542946234e-11 -2.1463294587427286e-11  8.7057046272175333e-12 -4.8386645821069954e-12 2.3871926919479775e-12  -4.6641987718068223e-12 -3.2902392110735095e-12 6.9182247589182202e-12  2.8724155898080927e-12 2.3578804948209856e-11 1.9571898337857420e-11  7.3576101198635660e-11 -8.8863479373144498e-11 2.7862121260727799e-12  -3.7550634862965843e-10 -2.9856861821964732e-10 -4.1561039951277914e-12  -3.6639767301441860e-11 -1.3145640655646155e-10 -6.8280476438061811e-12  4.4565167714695723e-11 -3.0270448672188578e-11 1.0099281358017098e-10  1.0978311614869202e-10 7.3779666258041736e-11 4.7330931715760083e-11  4.3188275119538372e-11 -5.9014139374817898e-11 -5.0734361668538676e-12  1.1367411506868499e-11 3.5015076579059141e-11 -5.1050374637888934e-11  -3.7952824368959321e-10 -8.3558033039436223e-10 5.9208701535648094e-10  -1.1983967028264046e-10 1.8179960195541459e-11 -3.1654615749395336e-12  -2.7256167593058088e-10 -2.2944773722364716e-09 1.0976651827151590e-09  -1.3645372844558279e-10 2.6491817980230105e-13 -2.0743323403308786e-10  2.7372305368682649e-11 -8.5627134327348733e-11 -3.5848224950310628e-11  6.0353723272985597e-12 2.9086963272967419e-12 -1.6072549862059507e-11  -2.7096803012996534e-11 -3.8280671858304868e-11 -4.0290908588051032e-11  4.2159759226153005e-11 2.5454237186028625e-11 2.0433527947874265e-11  1.0279684431712122e-11 6.8594602218572150e-12 -1.1407182866949389e-11  4.5710447113399614e-11 -6.4659325004354128e-11 9.0452344968695012e-11  -9.8814998115460709e-11 1.3301834133397597e-10 -1.8047589570243800e-10  7.0029662729132298e-11 4.1834872766013237e-11 6.7987958714057512e-11  2.9706857934554603e-11 -1.2351679456277627e-11 -1.4806154076675373e-11  3.4984634289468008e-11 -1.1984948868804394e-10 -8.9405830135426296e-11  3.2924300780505901e-11 9.7265503222233354e-12 -1.1074298152288465e-11  1.1431078829432178e-10 3.3551896602267403e-10 -3.4837423059305565e-11  9.5056741002067485e-12 3.3706419242744565e-11 2.3831763836100402e-11  4.0796112163462287e-10 5.1490265735388676e-10 2.4630838582655014e-10  -1.3395233308654921e-10 6.3139557150092690e-10 1.1791395036865986e-09  9.3058804670064293e-11 -4.4219752358321913e-11 -2.3491493042189955e-10  -1.8612386887451513e-10 7.3893591475113378e-11 1.0290540303907759e-10  -1.3112102873590367e-11 1.0423105586976850e-11 9.4458443952051916e-12  9.4314274854251956e-12 -6.8632690946744331e-12 -1.8464226976034236e-12  1.8566642550526306e-11 -4.5870905886362327e-11 -2.8187070508090089e-11  -2.8996952200586244e-10 -1.9107006350534670e-10 1.1536282267490236e-10  -2.2486275871006276e-10 1.9437790391033741e-11 5.5719303099830202e-10  -1.5245605760050643e-09 -7.8052485633741356e-10 8.5119819534567468e-10  9.2969024722478909e-10 1.7626818684281503e-09 -1.2732135514058390e-09  -2.7334010423316398e-10 9.1379203381954510e-12 3.2926992255618046e-10  2.2952291656688889e-09 2.0459767951400056e-09 -2.5574030526633040e-09  -2.4232790101618957e-09 -6.2715535678892720e-10 -2.5349532160771609e-10  9.0835249602242762e-11 -2.3111105249387238e-10 -7.5887696442485945e-11  1.5532795229694739e-11 1.0968746033380686e-11 2.4165725833636114e-12  -2.9170699724597524e-12 1.8293752532665418e-11 -3.3852888276249429e-11  -2.7239820571081918e-10 -8.2373256909704818e-11 5.8253566905075393e-11  1.5264459461133462e-11 1.1602192450295719e-12 7.7734182710554301e-12  -7.6190707969051379e-11 2.9396828222960486e-11 3.6167486764867674e-11  1.2190488998527454e-09 2.1592717885230463e-10 -3.0590182761360320e-10  2.0874502220588651e-11 -2.8907267071381524e-11 -2.6265419172581181e-11  5.2206758394290421e-11 -1.8452581525168981e-10 1.2520518108415446e-10  -9.4457291706731841e-11 -2.4020896762925622e-10 4.9937387272309759e-11  -2.9407713385623373e-10 -1.5644290480853526e-10 4.3820479996153106e-10  7.5801542372149457e-10 3.1359559379455316e-10 -1.4015688534915380e-11  4.8226365399227711e-11 4.3067903661316680e-11 -5.0730013494466375e-11  1.0867262802885401e-10 -1.3496451963338430e-11 1.1827301776975372e-11  3.1596988765536450e-11 -2.4460710542300354e-11 5.0420207469209635e-12  -1.5722330508829448e-11 -2.8832369040266021e-12 -1.0459998352090937e-11  2.7482198312612172e-11 1.5851036948175984e-11 -1.6698676322981352e-11  -1.5166749733520101e-10 -7.7106922698330662e-11 1.2304626346778586e-10  8.5632976546117880e-11 -4.8579137157292098e-11 1.7822030785408052e-11  4.0988015451580025e-12 3.3710443127865052e-11 -5.4638288709567176e-12  -2.0129911034022780e-10 2.7897232730142862e-10 4.3753322035545994e-10  -1.1879302354325614e-10 8.4030892130100043e-11 4.0423150710793170e-11  -1.1456179498793969e-11 3.5830706501157101e-11 1.3182723928230938e-12  -9.2728780748792434e-12 8.4267903118357296e-13 -1.0485092990226469e-11  8.8096835732939793e-12 -4.0331983876847721e-11 -1.9939441812300200e-11  -1.5884820493705493e-11 5.5086293180816150e-12 1.2396161974387133e-11  -4.0439079225257456e-10 1.4427075715177412e-10 -2.0725519050857095e-10  -5.3484182765976767e-10 3.1384027246472157e-10 -6.0984919216094693e-10  -1.4646359209358212e-11 2.5373093005214678e-10 -6.8153385708477171e-11  -1.2783187653743670e-10 3.2413266873604476e-10 -1.8968666027086337e-10  6.9329082409625909e-11 9.7240787313619523e-12 1.6222305234684830e-11  7.5186667704262878e-12 2.4629295732858932e-12 -1.8259518669937849e-12  1.1914364508612414e-12 1.4031785945095603e-11 1.0920804928537084e-11  -2.5643058908926448e-10 1.1729142286601695e-10 3.8701853033564956e-11  -8.8426139077863548e-12 6.4637767405448784e-12 2.6298660806190300e-12  -5.5359804363502879e-12 -3.3186646654811734e-11 -1.2571632566441332e-11  -8.9686050310827284e-12 -7.6792767510832446e-11 -2.8013737829277994e-11  -2.9728609303112694e-12 1.1893673216932585e-13 5.8720689094475531e-12  -6.8051011296756162e-12 -6.5078634231697370e-11 -5.8275815045610622e-11  -1.9251113191629004e-11 -7.2216181218519737e-11 -1.8584400744696277e-11  8.0124637644371589e-11 -1.1123934829017069e-10 9.2568152595258714e-11  4.4772437090282688e-11 -9.1706484683775876e-11 4.4691686873985982e-11  1.4038301075211291e-11 9.4133074868442277e-13 3.4959261283492659e-11  7.7468641142840161e-11 -4.2724013109503545e-12 2.3808552904322017e-11  4.0692319922540092e-11 -1.6668492495831638e-11 1.1091987921641275e-11  1.2439109910826784e-11 1.0191286069727598e-11 2.2625191815510878e-11  -1.0840706384590104e-10 -2.8269231141328549e-12 5.7708571816852147e-11  -2.9534261380107119e-11 1.2365318658731951e-10 1.9746213715810489e-11  6.6647546560140539e-12 -3.5060833640338419e-12 6.4583996750393297e-12  3.4731106917924676e-11 -4.6117374702433822e-11 1.7295333971453619e-10  4.8146804540808371e-12 4.4672774279059704e-11 5.2551098908578115e-11  2.9932779658347690e-10 6.2398006114714065e-11 -3.3862290865932216e-10  1.6730689396107334e-11 7.1781226554711112e-11 1.9374045616801155e-10  2.7649443769618906e-10 1.3580518213316925e-10 -3.6312831812509710e-10  -5.2615350357153750e-12 6.1196157050436999e-12 5.2647358924253185e-11  -4.0109749596269992e-11 4.4478686060918600e-10 1.4883857557848042e-10  8.3709612326537819e-12 3.5716411903277883e-10 7.5570566620129532e-11  3.9749884661839011e-11 -1.3396374286763427e-10 4.9815245665784696e-11  -4.5677679998634111e-12 -2.0234941334808781e-11 -5.5947560733628141e-12  -9.1303271788082311e-11 -6.0585990655927465e-10 -3.0522205003188964e-11  -2.2297817566136486e-11 4.9117952916331549e-11 6.2317149525307459e-11  -8.3534971561706202e-13 -2.7604939365597359e-12 -5.1458518424810132e-12  -3.5250035515413721e-11 9.2600151783421387e-11 1.0352413059044231e-10  1.4144318762479158e-11 -7.6268442060687247e-11 -4.7623350361758907e-12  -7.7714200983058447e-13 4.0461292282153954e-12 2.9485949421856992e-12  1.8955482905195624e-12 -5.2797124737782281e-12 -7.2177206113900702e-13  2.8123375044690992e-14 -4.1145745902798185e-12 5.7021699518700931e-12  -2.6069907520497415e-12 6.1210132098750468e-12 9.8495274159094188e-12  -1.4785823790677852e-13 -1.2472957440872897e-11 -2.3334128962782191e-12  -2.5296723567783210e-11 1.8275766073688276e-11 -1.8597818161994918e-11  9.6549363685609102e-12 -6.4579796146763454e-12 7.7995267776668737e-13  9.1670130347760600e-11 -6.2789424955372386e-11 -1.3602198579243992e-10  1.4881563776607296e-11 5.9958505627365248e-12 -1.2955047900352696e-13  3.3663249226778484e-11 1.6245083519399315e-10 1.4394563674561036e-10  4.5719530353749623e-11 -2.2390638815307559e-11 8.7743715856204989e-11  1.2192423613417001e-10 1.9798611419855089e-11 1.6383749387404964e-10  -1.6060890424014094e-10 -8.1879846254632489e-12 -1.4083885229290366e-10  -6.4667135390143843e-10 -1.9207205119484624e-11 -1.2864852847782731e-10  2.6601070668727285e-11 2.0755299847059541e-11 4.0733230609991484e-11  8.0237975601694077e-13 5.3283537442657030e-13 -1.5317259602254596e-12  -7.4796517549094532e-12 -2.2027415370646715e-11 3.9699099794160867e-11  -1.0021706296764758e-11 -2.0550126828414379e-11 -3.3284921744024308e-12  -5.6563450236665515e-12 -2.8604910663532258e-11 -7.6591124148370795e-12  1.2026506442272939e-10 -1.5229727717057320e-11 1.5204772076585353e-10  -3.5179300947606153e-11 3.4148326263095459e-11 -5.6909462046036136e-11  4.2215810520236462e-11 1.8984410883078572e-11 6.4540379848132409e-12  -1.0958387353002124e-11 -1.0307038748342284e-11 2.0960496124516212e-11  -7.8277335019092466e-12 -3.3612043710248737e-11 5.4922987488078885e-11  -1.6640642498941816e-14 8.8393040194556555e-12 4.5486016630377999e-12  -2.3151581905629638e-10 -1.0696923645552988e-10 4.6031055749405669e-11  8.2105498660149725e-11 -8.3348676983103279e-11 -9.4976445729865154e-11  -6.0965832477936630e-11 4.5481074990885789e-12 4.2843552200073573e-11  -3.8796525655231976e-11 5.2703284083655191e-11 5.0371967795620523e-12  -7.9712413090389831e-11 -9.1383845525132499e-11 1.5477699337514768e-10  -2.6945874804975145e-12 1.0334223943213245e-11 -1.8263024873267017e-11  9.3713368220514336e-13 -1.4500502625416889e-11 -6.7319779000046862e-12  -1.7489803198836608e-12 1.5365825406710091e-11 -3.6046157757339350e-12  1.9536079828986179e-12 4.8043771412232879e-13 1.2043011539565689e-12  2.1113532656175542e-12 5.6399191574396164e-13 7.5420277732659118e-12  2.3598027362535862e-10 -3.8266684092942569e-10 -1.1585181060254351e-10  2.2141123060971438e-10 3.4081747795136061e-10 3.3079028600410636e-10  -1.5787437738379885e-12 8.4577041110957023e-11 -2.1763824344613872e-11  -7.8531163671374868e-11 -3.6621072099990035e-11 5.3621919476471485e-11  -7.1221765718912938e-11 -7.2800934398676634e-11 7.9481278309827511e-11  -1.1371799050453435e-11 -2.0376275220406203e-12 7.4807233824640267e-13  -1.1634503038845522e-11 -7.4331089374647566e-12 1.7936638608812333e-11  -1.7276840142597729e-11 -1.8043767600781469e-11 1.0716779030814169e-11  3.2782165304092613e-12 1.0012490309676894e-11 1.2512524745370103e-10  5.4961410727336109e-11 -1.8995870795846322e-10 7.8775214663697620e-11  -4.3553566631508314e-12 3.0128782179056921e-12 1.7375007494912115e-12  2.8946391549712290e-11 5.5674468849780692e-12 6.5339287820468505e-12  5.4326852453183226e-12 2.7836571531523361e-11 -4.2553613244197329e-11  -6.1830469116847754e-12 -1.0431428904057268e-10 1.0935027247785352e-10  1.3520037442143317e-11 2.2811037689535065e-11 -4.9732761814480595e-11  -3.6990567564816374e-11 3.8149013173950937e-11 -2.8682897600000488e-11  -8.5310545944266540e-12 3.6099849752933779e-11 1.1663491827431608e-11  -1.5748915694638333e-11 1.0431371247061759e-11 -1.7704081280288055e-11  1.7526841787185564e-09 3.0882413770924449e-09 2.5209439090768764e-09  4.4497040149323477e-11 -2.5107257777675305e-11 -1.0816822874437310e-10  -6.5183001750427915e-11 -4.1539299321076509e-11 -7.2347003232962879e-11  -1.9030751524232973e-10 -5.2172007354324122e-11 -1.9763654940812367e-10  1.5981725587740683e-10 9.9822637037419545e-11 -4.6182092107571286e-11  2.1740796275241403e-11 -2.5539998566452626e-11 1.3554298895466373e-11  9.3836500799393733e-10 -5.7064827386597701e-10 -1.8914461373693142e-11  -2.0279296004452271e-11 -5.6113890789576322e-12 4.3889143412217490e-11  -5.0855818136734573e-11 5.6704891108940935e-11 7.9340681780736017e-12  -1.0873382902446618e-11 -2.8416628690491503e-11 -2.0893293829388344e-11  -2.5927042242518460e-11 8.5594550129515153e-12 1.3892314067342601e-12  -6.9818155678704716e-11 2.6520129190392775e-10 -1.2488740298983592e-10  4.2205106562064645e-11 -1.2081904625641108e-10 5.1870317100620330e-11  -6.9002052743480062e-12 1.3756060764990116e-11 4.6342892624207745e-11  5.5919711399479209e-10 2.3091005373062592e-11 -5.8817112877561001e-11  -5.0516860617969605e-10 2.4699063868641759e-10 4.0509575350383793e-10  -1.7208434517058825e-10 8.6215645134143315e-12 6.5103309201929655e-11  9.0285188054354213e-12 -2.1256408747010287e-10 -5.9608258276470653e-10  -7.5599733610076369e-11 -1.8466470513204143e-10 -6.2619787383693956e-11  -7.2345946499732210e-10 -3.3016350868209283e-10 -3.4201095835219741e-10  8.3377967536017053e-11 8.0539753487833870e-10 8.1087596546490090e-11  -9.5688044282014502e-12 1.0699493894929518e-11 -4.9146179433553267e-11  -2.4259626897776560e-10 3.0525848399924827e-10 -4.1043352141773956e-10  1.4917483217345503e-10 2.9843534021645779e-10 1.8523283167019892e-10  -1.1036028870856414e-12 -1.6578027736133671e-12 -1.1211212698875956e-12  -1.4776627308900259e-12 5.3455076282014323e-12 1.2477649119901003e-11  2.3377971258331620e-11 -1.6599289430949799e-11 -3.8006197930817899e-11  -8.7335728660764599e-12 -8.9113740508300125e-11 -2.0603060200332106e-10  -1.1957203515597836e-11 -1.2408010680841910e-11 -1.9691802030210437e-11  6.8427786442248552e-11 5.4590872813613424e-11 -2.8847361417391858e-11  -3.5905808316728606e-11 -3.2089394587446063e-11 -4.0917074940467776e-11  -5.1796735312960489e-11 5.185705