<?xml version="1.0"?>
<VTKFile type="UnstructuredGrid"  version="0.1"  >
<UnstructuredGrid>
<Piece  NumberOfPoints="177" NumberOfCells="626">
<Points>
<DataArray  type="Float64"  NumberOfComponents="3"  format="ascii">2.449293598294707e-15 0 -40  2.449293598294707e-15 0 40  6.123233995736766e-16 0 -10  6.123233995736766e-16 0 10  13.68080573302674 0 -37.58770483143634  25.71150438746157 0 -30.64177772475912  34.64101615137754 0 -20  39.39231012048832 0 -6.945927106677217  39.39231012048832 0 6.945927106677217  34.64101615137755 0 19.99999999999999  25.71150438746158 0 30.64177772475911  13.68080573302675 0 37.58770483143633  7.071067811865476 0 -7.071067811865475  10 0 0  7.071067811865476 0 7.071067811865475  19.88364730094672 24.78683072728187 -24.2951351613575  17.98270184681063 12.5102692981844 -33.46812806799355  28.99116041356069 12.69635192714123 -24.46048375681415  7.237621988488849 21.58154141153451 -32.89154751990188  -39.36214962262878 5.202794470683735 4.853051285697258  -35.5189953359923 -1.506959493679601 18.33384966138226  -37.81346799402737 -11.04047124606128 6.946195572366354  20.87822220865791 -22.98116080156483 -25.21836802052274  25.59760841452864 -10.33019241321131 -28.94908579148026  12.28492031124684 -14.24815826552631 -35.29972689677399  -12.24861777395123 -25.46610373699905 -28.30987324387111  -19.54435156758539 -31.82602304537978 -14.32210106505247  -3.671376879029347 -34.57808892320583 -19.7706033856076  -17.77170531789416 8.348073085964913 -34.84933522816928  -6.534493472484981 2.76966405082319 -39.36533190643296  -5.153845176600543 15.73721991398785 -36.41123163632913  5.554015899200271 10.36808145667925 -38.2316072680589  -2.71336125059527 -13.20044184426797 -37.66146579515815  3.609455226854242 -25.77332375789665 -30.37610270321021  -23.99661039875652 30.73551300752781 -8.915768589099844  -35.01551633224629 18.32161834039321 -6.183196372036132  -27.7524491823175 23.01559838521607 -17.32292687028738  -34.2527566821574 11.06813150944455 -17.44262378664867  -7.892667966402965 -28.68217513455986 26.74020609349435  6.204345380336262 -33.30581856094935 21.26566595210744  -6.870870045559988 -36.26667073670627 15.41167539537346  5.895403296768752 -38.71674219939803 8.139907458552559  -15.69695417297848 -4.000629662057642 -36.573222335453  -38.73224107680769 5.890902788242646 -8.069124209449596  -36.79831235280015 -0.3112302343094218 -15.67760644125905  6.549778458285209 32.17410594734563 -22.84572845492919  37.2941721924684 -9.047724270793355 11.28199477035039  38.2202382960584 -11.79846234238581 -0.09834097729102781  33.45964462971772 -20.06809041281489 8.816117537560919  -28.23724784502398 -1.475488093660826 -28.29276884690068  -35.10301981075938 -10.33540665569553 -16.15417498440695  -26.92779384545655 -19.43402000588806 -22.29826865537625  35.37870075326788 11.10355115457036 -15.00195603141677  37.09980606790693 14.91459734145121 -1.076650298877417  29.39086495135524 22.89078322704729 -14.5667120745736  19.07220510099907 32.64629518728071 -13.05643148530093  16.85555635183622 14.91815945293123 33.06567311589153  -18.5588067624665 -13.92565399967998 -32.58292270860036  4.709037372926321 33.12157728796791 21.92683481439015  -7.276447138605693 36.94195327967204 13.50353305330147  5.628857545908421 38.12029185667203 10.73123066055397  -4.706290316863552 27.5256261806974 -28.63897230722328  -11.57435162439104 30.18989540151367 23.55004458850599  26.31927260185512 -29.43090800637617 6.41229628366162  31.36234176753829 -24.68208136076741 -2.682979417845297  18.46271884664508 -35.38243864844116 -2.685339471842178  -1.589717019906482 39.9634207790271 0.6307134333794873  -21.94211839843747 -27.90658727048163 18.43273791665104  -19.38783795087605 -15.49421006966028 31.36943088275285  -28.39550706379261 -3.75404188077822 27.9213600698008  -19.46029063331866 2.229971306707804 34.87584144415773  16.18354962403354 -33.92105329756571 13.69141573213485  3.95573239527704 -39.53106007506254 -4.652684231575572  12.20297257281187 -33.40276900614205 -18.31235875329876  25.33738549230237 -27.96283006454366 -13.27015565831533  34.24703245759387 -14.21840125598397 -14.99926110087912  -10.61943580316682 37.37170090126291 -9.517539333722961  -16.58413267416351 30.55427268400329 -19.78390669704325  -5.138665752805475 34.67803809394554 -19.26208161741109  28.91117908897597 13.99959756455797 23.83600200779445  25.25619170295996 -25.10916073886747 18.21139279827473  -22.13788052563738 31.07624962165663 12.00753743633937  -10.99466661357387 -38.20246169281176 -4.437254406230776  19.93134369032896 26.31051523568704 22.59421002670074  30.77725549521458 23.23085712018617 10.63427579310312  18.82149389896602 33.44077007199025 11.29009585448531  -30.63342835654954 -15.2806414567032 20.6904582790191  27.05486437240869 29.3969047746 -1.963747301378425  -2.855364429377 -17.76526626216052 35.72453230778522  10.72468899314744 -26.00867195371562 28.43466245982653  3.233056604964661 -7.854995531268879 39.08767568163705  13.1632718768092 -12.88631212998264 35.50593236609717  -24.8129551011487 17.08472858007059 -26.31405154083457  -32.47004299928874 -21.88259711298566 8.176077984895484  -39.11691825725016 -6.406770543482292 -5.368425957277976  22.47196772012414 -16.35721061105511 28.76547110358676  -33.19424603112175 -21.44981724346117 -6.16825507315268  31.47985892518635 -12.97443378302567 20.9924403074118  -15.36231329184293 20.03066868270535 -31.02856172056566  -26.84416026918226 21.69371976811911 20.21814981804159  -34.89949657429278 11.09258216001103 16.09284809734844  -33.33842082421543 20.54152561398452 8.160601840399833  -28.77591242580136 8.512398414566563 26.44779645441744  36.36993364516268 10.02128790549056 13.29668061441398  -28.92709770815203 27.60466880951951 1.097851583669779  -6.294583760480129 10.05949488046475 38.19927719253603  -0.5732106132877703 22.25229659376332 33.23411990554291  5.961070500486472 10.32930728763289 38.18076805730713  15.69016652060703 36.79208129472606 -0.4017817291655198  -23.87893484396823 -32.05026657673804 1.605267291620958  -16.44435478880617 16.61941719690225 32.45578789083971  10.67362182951251 26.67086351114236 27.83413078597155  -14.26494849606465 -36.60552151699818 7.519776517504123  -16.82045228930869 36.26229629574933 1.455421637318526  -9.669985168451094 -5.610921413932707 38.40584522867069  -4.759318982813219 -39.43908311313498 4.680556165143748  4.929698338875676 38.15951181373291 -10.93388002610532  6.331267177198703 -7.34305917145209 -38.80714544945917  -3.874695763035156 -5.434215034896615 -7.446881206144019  3.404479944026854 -5.899697724714222 -7.321412641541299  -3.874695763035153 5.434215034896617 7.446881206144019  -6.695121459858198 7.262827408017331 1.55778261612412  -0.3178716214830341 9.994807183174938 -0.05279207715566485  -6.695121459858203 -7.262827408017326 -1.557782616124119  -0.3178716214830321 -9.994807183174938 0.05279207715566547  3.404479944026856 5.899697724714219 7.321412641541301  8.005297600263845 5.983203940180543 0.3412930433190445  8.005297600263843 -5.983203940180546 -0.3412930433190435  -8.05120342482333 1.327090644721389 5.780739903576882  -4.330331032753904 -1.042833389081882 8.953252574868225  -5.606081433455704 -6.373604325737287 5.2866831624759  3.196409336378548 -7.561827574594316 5.709792560716817  -10 -3.216245299353273e-15 1.645257237962959e-16  -8.05120342482333 -1.327090644721383 -5.780739903576883  -4.330331032753905 1.042833389081885 -8.953252574868225  -5.606081433455699 6.373604325737289 -5.286683162475901  0.4631774941740192 4.300786277589142 -9.016024844874353  3.196409336378557 7.561827574594314 -5.709792560716815  0.463177494174015 -4.300786277589141 9.016024844874353  -4.364766504141945 5.959686077143495 -23.99417745894191  -17.32206894581589 6.492370224912959 -15.46622156174631  21.30835213115306 -7.607319611115857 8.826208444545252  -4.323140717896897 -5.902849905380496 23.76535044125745  -17.23209730169049 -6.458648547367763 15.38588927657467  -3.078910292976577 17.55101558280523 -14.76581400580386  21.09300810634053 7.530439390017117 -8.737010028891884  10.11820079106462 -11.40689218156813 19.61560153329077  9.286858032571377 -4.820286805617798 -22.42045861406733  10.14223501198011 10.86013031339685 -19.09618190810159  -3.061453769240007 -17.45150644126858 14.68209614521198  -22.31848346636936 8.984402796765265 5.46142323802996  -6.622900663982764 21.21276150972698 9.758593188156286  -6.738463728411993 -21.582903211897 -9.928870984934054  9.968451978132775 -21.35284145819848 -6.825975425708355  -22.49660721735682 -9.056107289095735 -5.505010840850479  18.15356974031381 10.76900621033219 12.09442645644986  8.538306212446731 4.431755566181049 20.61329465778334  10.56154041990615 21.64293764431885 -2.747145880614288  -15.49786364085579 -18.78384422729284 4.906273590332722  21.60056326573593 -6.867778473783182 -5.84651869192715  -11.77118341119598 4.888114729564563 17.45730835229231  -11.80627295044741 -4.902686050703386 -17.50934805681934  -14.95591423677991 18.77781128893655 -4.819258877917026  5.957389685144256 17.43078429069943 15.32730299013358  12.21720775169839 -18.84061606183486 7.308107711905766  -0.5141391421913668 -12.91437214785632 -18.08347403977128  -2.584952713747109 22.67983420511977 -2.668577670709162  -0.3593501861438191 -23.89371544024119 2.432898011868648  21.60056326573592 3.250893619673534 2.874776883476643  -16.12722543106809 8.115052017796405 -3.620338880917837  -5.994258944348162 8.540089865480516 -14.50195949428324  -0.2036798652376973 7.667303510131322 16.62867142135736  -16.10757060284825 -8.105161912763366 3.615926644038888  7.17237910875163 15.36353631669454 4.911342668610937  -12.63228235989196 -9.228907399196668 -8.915542376366064  -12.60803396435314 9.211191978449172 8.898428477877573  -5.9703697868867 -8.506054707269017 14.4441642610317  </DataArray>
</Points>
<Cells>
[...]
<PointData  Vectors="f_135-0"> 
<DataArray  type="Float64"  Name="f_135-0"  NumberOfComponents="3" format="ascii">1.6582928670108921e-04 2.6682423458828861e-04 5.3413887195465201e-04  -5.8986007371771565e-03 2.7210398864286533e-03 -6.8469027102718749e-05  1.3628474692757289e-01 8.1377163877745351e-01 7.4984581089005298e-01  8.3633127833705467e-03 6.8279501517393060e-01 -6.8872688786348513e-01  -2.1557777729725304e-05 2.4720542420160528e-04 -6.2372910148690035e-05  1.3431509280781447e-03 7.7198558814701385e-03 -5.4509488221622378e-04  2.5155334878354752e-04 5.6254706974290755e-05 -9.2213893210233797e-05  6.7065464806776690e-04 -1.7214646928661451e-04 6.6158197067336895e-05  8.8830934073542744e-05 1.3059356158065359e-04 -2.2686393300960138e-05  2.6486946789956771e-04 5.2787123183199540e-04 -4.4646732564100557e-04  -2.9744735159328854e-03 -1.0380923311190636e-03 -3.4435447962182114e-03  -8.1057799464467222e-05 -2.9334514973723333e-05 -4.5132709037588794e-04  4.9181502001059846e-01 8.4151887845253759e-01 -2.0371645146718492e-01  -3.5994223682914959e-02 -3.5943112848946308e-02 -6.1915066715816050e-02  -2.4349118495809294e-01 4.4251383017301626e-01 -5.2398527579934284e-01  1.9875814754029546e-04 2.3369449666615168e-04 -3.8273550526290073e-04  -1.6318628236176180e-04 7.9332252286714745e-05 2.8116635794294103e-04  -1.2753561800773979e-03 1.1404804107332147e-03 -1.5751472832120363e-03  -4.7840839912421343e-04 -6.3103323023292845e-04 7.4629910958485537e-04  1.3166430799867252e-04 -7.0582436269454383e-05 -6.8735317202659360e-05  -2.9163442306035653e-04 -2.1331095520520329e-04 -1.1215513781277607e-04  -1.1982965685273300e-03 -2.1877088548165297e-04 9.2967452787496183e-05  1.0335440612733811e-03 -1.3119368463915964e-03 -1.2462607190887667e-03  -1.0160956003060407e-04 6.9812505919756014e-05 4.9938771190902027e-05  -7.6722062656142253e-06 -1.8761020371385994e-05 1.5656035450926478e-04  4.7638984893946936e-04 4.5953804128327758e-04 -1.5115873888831423e-05  6.4891538818240670e-04 3.2825653344320375e-05 -5.6492954379153062e-04  2.0446626810472206e-04 5.4267399660071116e-04 3.6255936276377315e-05  3.7633604919448649e-04 -1.6334780483394167e-04 2.3470295357367371e-04  -1.1453831720548823e-04 -2.2772050254784234e-04 3.7107504891296268e-05  -3.3446106478778623e-04 6.5507943723623494e-05 -7.3518945667889557e-04  -9.6525681053517430e-05 4.0552474011963094e-04 -2.0201072528982155e-03  -4.4895069853117533e-04 -1.3123448546044055e-03 -1.8875935153780095e-03  -5.7502342860995257e-05 1.5000629838720416e-04 -3.5363031832234446e-04  -1.7642809434007607e-04 -4.8385105955606571e-05 5.3639302722502650e-05  -8.6403429627746520e-04 8.8710391061994282e-04 -4.1319836704694431e-04  -5.0536097485116599e-04 3.1436678666043358e-04 1.4347850300283017e-03  -1.3416058147987986e-03 1.1092252859716671e-03 -2.3587149775054284e-04  -1.5532594235915842e-04 3.2933094406066641e-05 1.4714717827327896e-04  3.8341051728397400e-04 2.9384170570851595e-03 -1.3306637819268433e-03  1.0867071897530552e-03 1.9340551600541148e-03 -1.1521641907076014e-03  -6.2042609614948989e-05 -1.7025822112910511e-03 -2.4809300891411458e-04  7.0960763803441568e-05 -1.4033438736765096e-04 2.0144843244595842e-05  9.9153371300719436e-05 -2.6416644853934058e-04 3.0321299930369375e-04  -2.2044301575954256e-04 -7.4938207752755733e-05 -9.4876983274406562e-05  -2.4515871363053117e-04 6.0915541929877225e-04 -1.2212853423073386e-04  -4.7320843115364892e-05 -1.5723254695359303e-04 2.1611356807731998e-04  1.4635707071307949e-03 -1.6460232684506452e-04 -4.2300290326649146e-04  -4.8304984854378617e-04 1.5955652281547059e-04 -6.6694717768712205e-04  -3.3583468059021138e-04 8.3499905737026783e-04 1.6756735431809489e-04  -5.6656913724984327e-04 2.0431787385642199e-04 -5.8687385204118621e-04  4.2483051448488759e-04 4.0743687166123132e-04 2.8320126166890509e-04  1.6929476118300520e-06 3.5367392295697461e-04 -7.6982014171671448e-05  -1.3752553911296013e-04 -1.1346910778163574e-04 -2.0394824643334603e-04  -2.5055471094209145e-03 4.3588968631759024e-03 -4.4835244992426316e-03  -7.5094749558715017e-04 3.3739159647997537e-05 -2.3049846747950849e-04  -2.4785498486645558e-04 2.6116704976643471e-04 -4.1204736285796879e-04  3.9961792264628392e-05 -4.3529962355163409e-05 7.1939477189916762e-05  6.6013680839730125e-06 -8.0822907044956037e-05 -1.4477964442375483e-04  -2.4627175973836196e-04 2.1389418094709757e-04 4.9919680032372381e-05  -1.0735289426845498e-03 2.8252941044334609e-04 8.9731416321301024e-04  -2.5769053496336580e-04 -5.9945310132007018e-04 -2.7239162131509391e-04  -4.4436611503736973e-04 1.8296228037110662e-04 -1.1834919201786800e-04  -3.1812119514558165e-04 4.2296986952803278e-04 -1.3856003542296843e-04  -1.5718330053237171e-03 8.4219425958794597e-04 1.7142611122027379e-04  -4.9276340127066731e-04 7.0207912493534027e-04 2.9491674260006916e-04  1.7248695650229405e-04 -2.0611508315624603e-03 8.4010596976476519e-04  -1.7038201596561648e-04 -3.7264196890183165e-04 1.9505465406781389e-04  5.0300827011179371e-04 8.5575043661228469e-04 -2.0378173660883609e-03  -1.7888585716235145e-04 -8.1057868127093859e-04 9.1533298145037804e-04  6.8211911752692560e-04 -4.3858787697514739e-04 -5.0786152902885942e-04  -2.0995285683337499e-04 2.5430072649799371e-04 1.4803207310994416e-04  5.3785167424450896e-04 -4.1434239011140092e-03 9.0391572021154582e-04  2.0643402765430520e-05 1.8305316402569713e-04 -2.4564655174460050e-04  1.5072836998979527e-04 -2.0475810939676810e-04 -1.5946705018994985e-04  -1.2494556831804429e-04 1.7426586115504349e-04 -1.4900513713710301e-04  -4.9887241026233672e-04 -4.9307305838776801e-03 8.7937859695246901e-04  4.1549611849347719e-04 -4.1380154986135533e-04 4.3032490658466817e-04  -1.3211987933351252e-03 1.6915507130673643e-03 -1.9503573887518296e-03  1.0340914267005102e-03 2.4091114771778512e-04 2.7509459030539802e-04  1.0473474935004203e-03 -1.1684352505459284e-03 1.9659952719640854e-04  -1.0247064309103215e-03 -4.2466435230118361e-04 -5.9872639870041746e-04  1.0290978246226532e-03 1.9233253183750096e-03 7.6739783523539383e-04  1.7549836755958645e-04 -1.7433486473203118e-05 4.8694953498229260e-04  1.2113648496905928e-03 1.4583343369202640e-03 -4.0263927099673802e-03  -6.2285837311628581e-04 4.4562457746887929e-04 3.8963752517953882e-04  5.4339691612593675e-04 -1.8454091444813968e-04 -3.4351174942644745e-04  -2.5121131367467856e-03 3.8086977676663272e-04 -1.9919741309049142e-04  -1.9147624435723052e-04 1.6533533759275184e-04 -1.3136753080323128e-03  3.7468607096379801e-05 7.1603847430089614e-05 -1.7697146718970290e-05  -3.5511692900168010e-04 -1.7077478722335592e-03 2.3289905393399915e-03  1.0807275116377595e-04 -1.2853722012749270e-04 1.8081642349209850e-04  2.3635670300012281e-04 -7.8628937604119839e-05 -4.4021919805726150e-04  1.7906082257880361e-04 -3.5612702172218560e-05 5.6408863323857803e-05  -9.8878037026394399e-05 -2.2717326402196151e-05 -6.2091075032498326e-04  1.6663986553142789e-04 -4.5841046860643862e-05 1.6209964292595878e-04  -7.9441798909590013e-05 -2.2576801204646206e-05 -3.2870949516571708e-04  -1.3425318234830601e-03 5.5489138023997325e-04 -3.3419966605824922e-04  -6.3690990406458530e-04 -2.8109148681647604e-04 -1.5703788056346565e-03  -5.2699766303710674e-04 2.8762024588960473e-04 2.3655869065436301e-04  7.3407875340198299e-05 -5.2831781125110269e-05 1.4901658299819516e-05  6.2488397392869427e-05 -1.2218207635108126e-05 -5.0398744872687959e-07  1.3404211584843126e-04 -1.3796314090776403e-04 -7.1322016513973444e-04  1.3380352402934574e-03 -6.6707391921298764e-04 -3.1307195957853973e-03  7.5014791024583628e-05 -1.6618343363153948e-04 -4.6930426212815691e-05  -5.4570749916934267e-04 7.4197901295904685e-04 -2.4754577856154533e-03  -2.1685197820623981e-04 1.0488518324747989e-04 -2.8062897100904834e-04  -8.6389833315386917e-04 2.0685777178966244e-03 6.2106799021751789e-05  -2.2888158388619374e-06 1.9390755508882487e-04 -6.5213812456755044e-05  -3.8203096109684108e-05 -2.6707811149316817e-05 2.6484419987673626e-05  -1.0516556640220859e-03 3.3694989943328622e-04 1.2209082754012172e-03  -1.6841066689012341e-05 -4.2894739309837931e-05 -4.1483671718213688e-05  2.9871450232325358e-04 2.8784965460772248e-04 -1.7809057086949588e-04  -5.1000859182698049e-04 3.9503415603518580e-04 3.4820551544255493e-05  -8.6418914272348542e-05 -4.0408351815287071e-05 1.1246984199271573e-04  5.0611679238444726e-05 -4.2095638701460580e-04 -5.8638270415932111e-04  1.1744206365768118e-04 5.6967320434967415e-04 -1.7578936053953977e-04  -3.0790633003676800e-05 1.1831990671978675e-05 5.3906860875047282e-06  -3.0888484688585910e-01 7.7293051141163138e-01 -2.1793158577874833e-01  -5.4973528547317546e-03 7.9473898728026571e-01 -4.4265932428847810e-01  3.1982826820047133e-01 7.6493545406050512e-01 -2.2565517314745953e-01  2.7909102514323908e-02 8.1744346986126801e-02 1.2302554482082874e-01  3.8109334792768018e-01 2.0790648045541169e-01 1.6350344841602016e-01  -3.8041105187872432e-02 8.8504709548544058e-02 1.2375937653048978e-01  -4.0702759055752558e-01 1.5393466237067055e-01 1.7464185091198514e-01  3.0536244318968120e-02 6.3405594315583819e-03 -7.6168562677763202e-03  -4.1934286065829735e-01 9.5748363200888170e-02 -2.8713254927287141e-01  4.0959982235382886e-02 9.7952066345899835e-01 -1.6894834479644905e-02  5.9497073871183237e-01 5.5766022412972382e-01 -4.1953424299304787e-01  -2.8119737052043448e-01 5.9767574546572133e-01 6.7947597041890739e-01  -7.0136268494634613e-02 5.9285866579241384e-02 1.3287657356034746e-01  -5.8714557961850516e-02 7.7818857010390530e-01 1.6919972215470294e-01  -1.6945624882613267e-01 -1.9312379768689047e-02 1.7407497676550274e-01  -7.7259497018700524e-02 2.8481117683476581e-02 1.9517722142770644e-01  2.8378934817891516e-01 5.9398292499562522e-01 6.8574676308274762e-01  4.9641087202509676e-02 4.6071725926754369e-02 1.3133229614897396e-01  1.7231685696750781e-01 5.4218319536227455e-01 3.0928226267059683e-01  6.1034709277863863e-02 7.7787469940020204e-01 1.6759125497154573e-01  -4.1082343598568577e-02 5.7079495893454557e-01 3.8955194287986455e-01  -4.6388576390240729e-04 -1.9090693696534960e-03 5.2794345909942776e-04  5.5695857661782165e-03 2.6783095922881042e-03 -6.9009811816614342e-04  -2.0064669218236830e-04 -1.1535929891574727e-03 1.2738725158607527e-03  2.4855254673613351e-03 1.1792274904236748e-02 -8.6383457163123865e-03  3.2540430256303623e-03 -5.4029464193549488e-03 2.0433205800737850e-03  2.3983959435532227e-04 2.0054826882425384e-02 -3.0102671665441276e-02  -1.0927416866372835e-02 2.5268073140906934e-03 -4.1832050428348335e-03  -2.8897456469567366e-02 2.8832636984002413e-01 2.5537071881571571e-01  -9.8691875621502722e-05 1.4516241814041082e-03 5.4382837209865419e-04  1.6971753531227428e-03 1.6282346502838822e-03 -8.6657103349893714e-05  3.8077505583278669e-03 2.4299962547682328e-02 -3.9354704196395966e-02  2.1204209754156621e-02 -4.9021445506541575e-03 1.0376696737813841e-02  1.7424252549332630e-03 6.2884538488757608e-03 -2.7205632454675383e-03  -2.3853813072403154e-03 7.4949812802067193e-03 -3.4455356076361137e-03  -3.2856201482483436e-04 7.2723417139645844e-04 3.6175620716674120e-04  -3.5822266492730199e-03 -2.3665089414361602e-03 1.8130996583666271e-03  -2.4262317805121343e-02 -1.6532735248956064e-02 -3.5280582964315438e-02  2.1262665692188855e-02 -1.5688704103185649e-02 -8.8141398535437968e-02  7.5388925573967834e-04 -4.3387234720729849e-03 -1.2089764599258431e-03  -4.8259968759982036e-03 9.2435720754174087e-03 -4.1289118582036270e-03  -1.0315565463662579e-03 7.5935370086545871e-04 -1.9844585969513921e-03  3.2590384278152473e-01 1.8754112574674386e-01 4.8674497792199463e-02  2.2418289086784083e-04 -2.5527124851411793e-03 -3.7524893911386964e-03  -4.8483028569677534e-03 1.6976013144990062e-03 4.4474678675875678e-03  6.4354786101150831e-03 -6.4922853698558079e-03 -5.5713146734176237e-03  5.0686254783364223e-04 -1.8463502970809205e-04 -1.1584643293770381e-03  2.4710422576112241e-04 6.8677919796913305e-04 -8.0119435991738536e-04  3.0551385949822930e-04 -1.3687097151013483e-02 4.6686995002908266e-02  -6.1512439266415567e-03 -2.7602464238862368e-02 4.1518241589964193e-02  -8.0393482970213086e-04 6.4610785744325609e-03 -2.0992707986137331e-02  -7.8281892406218637e-03 -2.2868198892714197e-02 2.7628407661387574e-03  3.4941318865992263e-02 9.2710167950296685e-02 8.2997314625453705e-02  3.0013577236406097e-03 -1.3361301239839390e-03 -2.7909533726330061e-03  -2.0422238460420994e-01 2.1420273726686406e-01 -1.5011486457647494e-02  2.2560327425376208e-02 -2.1892202457323953e-02 4.6325132889739199e-03  1.6028163646665379e-02 -8.8293716494310271e-03 3.8253567136930038e-03  -1.7057357077688087e-02 -1.0688820752457244e-02 2.2147769213676596e-03  -1.6934500408992723e-02 1.2600010569344317e-01 9.8405470980828580e-02  </DataArray> 
</PointData> 
</Piece>
</UnstructuredGrid>
</VTKFile>