<?xml version="1.0"?>
<VTKFile type="UnstructuredGrid"  version="0.1"  >
<UnstructuredGrid>
<Piece  NumberOfPoints="2306" NumberOfCells="11125">
<Points>
<DataArray  type="Float64"  NumberOfComponents="3"  format="ascii">2.449293598294707e-15 0 -40  2.449293598294707e-15 0 40  6.123233995736766e-16 0 -10  6.123233995736766e-16 0 10  6.58378361122935 0 -39.4544521361089  12.98797876818733 0 -37.83268966802539  19.03789572148294 0 -35.17895004825957  24.56850850758671 0 -31.56562037585575  29.42895642692527 0 -27.09126286502964  33.48665913050114 0 -21.87792632489708  36.6309330662023 0 -16.06781698611878  38.77601063757321 0 -9.819419485631968  39.86337972026679 0 -3.303173818893296  39.86337972026679 0 3.303173818893289  38.77601063757321 0 9.819419485631968  36.6309330662023 0 16.06781698611877  33.48665913050115 0 21.87792632489707  29.42895642692527 0 27.09126286502963  24.56850850758671 0 31.56562037585574  19.03789572148295 0 35.17895004825956  12.98797876818735 0 37.83268966802538  6.583783611229359 0 39.45445213610889  1.645945902807338 0 -9.863613034027225  3.246994692046834 0 -9.458172417006347  4.759473930370735 0 -8.794737512064891  6.142127126896677 0 -7.891405093963937  7.357239106731317 0 -6.772815716257411  8.371664782625285 0 -5.469481581224269  9.157733266550574 0 -4.016954246529695  9.694002659393304 0 -2.454854871407992  9.965844930066698 0 -0.8257934547233241  9.965844930066698 0 0.8257934547233223  9.694002659393304 0 2.454854871407992  9.157733266550576 0 4.016954246529694  8.371664782625288 0 5.469481581224267  7.357239106731318 0 6.772815716257409  6.142127126896678 0 7.891405093963936  4.759473930370739 0 8.79473751206489  3.246994692046838 0 9.458172417006345  1.64594590280734 0 9.863613034027223  15.53588175341682 10.47570570671982 -35.33972224126907  22.52105177297604 10.76850249609674 -31.25446497751147  17.11199790951345 17.00083928873432 -31.90847835644055  -29.72657234906893 15.91711488703517 -21.51688523110382  -25.14992024955119 21.79628461017795 -22.19016648502969  -30.27309326250051 20.53672076911706 -16.17970717816803  -20.89355786170783 9.389879430176292 32.79160569667516  -21.50254498059339 3.757507031415958 33.51897522697282  -26.64996019884904 6.885284446091766 29.02365379300423  31.47556685883051 5.378936358232429 -24.09057356248239  35.08592513857359 5.349065357770876 -18.44899338632612  -7.137647015307699 -33.35587867819428 20.89113095766847  -10.48955743399326 -35.4140774700041 15.35618122410337  -13.01355430879985 -32.45546050027133 19.42396684426855  -11.43657062454909 -0.03685808298520405 38.3301903704041  -9.609585094508281 5.8692532341686 38.38238841949008  -4.568537977596148 3.31758443605268 39.59952138924059  -31.49222771933744 7.502498447505969 23.49366106673384  -32.73069959859194 11.7537767857384 19.7623388053583  -28.45303385594115 13.81215824501363 24.48773466467179  -18.8285579036339 27.81333248817475 -21.72335018296553  -24.48443087076404 27.10945119764579 -16.29694145222467  -31.36177321271318 16.57677189054089 18.48377165632921  -24.85129112667903 16.54764152587408 -26.61933299818408  10.01383607118345 -5.776818396636194 -38.29296875866052  15.75720863583826 -6.709798929918917 -36.14815312469951  -13.13329918173097 19.7415129756288 -32.21473448650826  -13.18801353993143 26.40945069928093 -26.99291041427055  -19.02544974766931 21.93827224377989 -27.50898894646451  -12.21316547777416 13.03275705454818 -35.79086241723759  -5.268738096262525 10.32620788308489 -38.28328394519346  -6.839409365138239 16.92417126160453 -35.59206241065469  -35.55718524879826 -4.577150679538526 17.74080800976787  -32.39241844245679 -5.673745030375088 22.77146997405041  -33.9790102328028 -11.06481664687723 17.97210884036906  -0.9816453653123123 14.90369757509052 -37.10682108409452  -7.27663286510801 23.99763105753954 -31.16350939436449  -34.17260777354002 1.536783648492278 20.73333484930774  30.181834640201 10.87004961476731 23.89349030853508  31.55530342902033 5.025258804421209 24.06261829999065  26.94926920827491 6.863254908511189 28.75121947328014  3.575597975181185 -37.46834474991199 13.54024522752903  -0.3086621438491544 -38.86705156830128 9.44759387717124  -2.106977156120542 -36.25648010904121 16.76389863266554  -25.10570013831043 -0.01600106960048824 31.14006365650224  -20.30168545525158 -34.30786828474635 3.288121261833596  -14.95504926646267 -35.76858592320193 9.846560947467664  -12.2624563887404 -37.96464240969074 2.884109917903714  -21.37792074566657 -32.01742957819189 10.85673559581894  34.00448323044128 -10.96281072669066 17.98643658986943  33.16287720395623 -17.27064686291152 14.21085263071589  29.49947274051343 -15.85899153871744 21.86946490901398  -34.27212094955226 -20.60482370410059 0.9289594943783835  -29.63185364883944 -26.78806146492992 -2.086387376518965  -33.19294097623149 -21.37395227419811 -6.432949053794337  -24.04382034957743 -11.12409314825994 29.96913836976437  -19.66843773935943 -15.01983367975011 31.42542208349135  -23.62602552711756 -17.23712869927144 27.2890511377135  -18.07301171367722 -19.45152560144166 29.9166241306359  7.659083394003484 28.92360064807372 -26.54738719939214  11.97293701464462 31.31497151272116 -21.81791324578992  6.165648999446344 32.84036881473823 -21.98851856145827  14.91326368495444 28.17635019025058 -24.15963278320648  26.00029168454535 14.16353805405327 26.89570638800823  23.62156226763754 11.52104458404254 30.15439151647114  20.61041634261285 17.13943524453665 29.68923201570717  19.02192988141736 12.16382310337485 33.0182917652662  5.559360584328876 -24.42572549097412 31.18457061004668  11.03603061403813 -19.4894745907638 33.1416114342979  11.94971062662093 -25.66091072668081 28.26167151138341  20.1798685080628 32.71162372756331 11.07802239136628  17.452146574544 35.11090308672834 7.914989853120611  22.86495810970977 32.62498145144492 3.578306294057573  16.41238239282671 36.35242917840987 3.022349586054905  -10.7677465314438 -2.302045403286149 -38.45459948557245  -4.38612424556664 -0.1394118440822915 -39.75855226791064  -5.442748766938489 4.281360824974659 -39.39602055216189  -3.059258078670331 -4.747574549759611 -39.59926105248134  4.070620108831676 -5.591410955101921 -39.39754022094198  -22.40600737747275 30.8158050845394 12.18018843829243  -23.80823529213034 26.50877468793443 18.17836067468367  -28.74045257894489 25.33418309319387 11.49632778577358  -29.04965782139183 21.82742773730147 16.72365925367206  20.49825576433122 5.470078814292259 -33.91017175399577  13.00825033791319 4.716540500854282 -37.53051650124179  24.96131121306764 21.5542587120073 -22.63508060291019  19.49422082031237 22.98275419593832 -26.30148977107531  24.49451857030708 16.0767974067618 -27.23151015185935  35.25100337319021 -5.758274855144236 -18.00580550477946  37.70892951717559 -5.878962384031901 -11.97808148059702  20.97495638671236 26.95129446992712 -20.82495932699006  21.86483754552626 32.46679010188245 -8.236286759702628  18.22599328833919 33.36877840175752 -12.42327640470964  22.63957063641941 29.54713243611452 -14.64297805097327  5.724499338174645 -38.7000252966944 8.338953733080155  39.0994190945011 -6.041889421216823 -5.893301171190153  37.31705206870475 -11.87333547569591 -8.152394101315267  26.8664093178926 25.14230745647919 -15.68631333766237  -1.027026885078869 20.9620189950968 -34.0520039854709  15.96573572568732 31.83473462008143 -18.21112172290605  35.15195440762426 -12.93233154291638 -14.03904919103839  -27.11050960258531 -27.28632697514156 10.97618464193236  -23.51146242057757 -28.20337850794761 15.86759514177266  17.56866097168276 -6.413287714463801 35.35833554274831  21.80518893115878 -11.0594036576927 31.65791096096967  15.84542185719573 -13.58629694191485 34.12235545172137  22.12059994355968 -5.064825882283333 32.939741907294  -5.437931178100277 -30.49474064339248 25.30809549520611  -0.8234633162255885 -32.52043165637636 23.27538255431659  16.20339353098199 6.491088211537515 35.99049613314839  10.06801812277176 6.366083651591906 38.185180240775  12.59101587471143 12.47614464548291 35.85822268361544  21.06720908314858 -30.55938394764149 -14.9096195185368  23.09331396015825 -25.91647068681495 -19.87549741458115  18.67068577047733 -28.78277891152334 -20.56592159351151  -11.31099600702532 -29.83743549744388 24.1202987598606  -34.69758838383603 16.02928645925417 -11.79573380307717  -36.23761441649643 8.868951561430706 -14.42834015409693  -33.48147009306122 13.7377620559513 -17.0371668449162  12.86990747934133 23.40228323364368 -29.77748513433453  7.989502321581628 17.49714551968233 35.07160890687084  4.194277596478358 21.46229937241431 33.49295061789188  8.861995543234519 22.97459846563985 31.5219425215882  2.062539068003777 16.79382622088228 36.24518358976493  3.302254729051216 31.12151585358969 24.91076804675489  -3.237908179909204 29.35276108868883 26.9802032440238  -1.714205612298309 33.22502898399233 22.2071823546265  2.439219659204209 26.08020276844684 30.23033627022448  24.44683202128719 31.47875942942091 -3.382323004624446  19.76460609885411 34.69977240045288 -2.299160958677657  3.13190467376213 -36.26022669027451 -16.59479236038738  7.727804429952934 -34.36653829928681 -18.95315498844593  2.288118481143042 -32.92463776242246 -22.59939693950962  -38.96557139159426 8.066410704995853 -4.076427905029002  -38.12098763662057 12.07378699324774 1.006960401556874  -39.57972938554477 5.322402643481785 2.262090154636279  -36.86768450174365 14.60674937964034 -5.236097023572739  34.24785092714792 -5.420798882560009 19.9424082383921  31.33079643848202 -4.58740103385682 24.440477619821  -8.505553831218217 -21.90083269588995 -32.37296837256181  -1.249195594295447 -18.21468690827154 -35.5902330871945  -6.691809618234807 -14.78357303886607 -36.56043834854572  -27.44080449768052 -21.74904730496604 -19.3385932747557  -24.24965665925197 -20.06821261644574 -24.68240252263796  -28.60961136708747 -16.80943888920025 -22.33680598596097  -26.2488201723993 -13.97317681340474 -26.75350013172804  -15.49514408870478 35.16732608653125 11.097733353881
[...]
<PointData  Vectors="f_135-3"> 
<DataArray  type="Float64"  Name="f_135-3"  NumberOfComponents="3" format="ascii">0.0000000000000000e+00 0.0000000000000000e+00 0.0000000000000000e+00  0.0000000000000000e+00 0.0000000000000000e+00 0.0000000000000000e+00  0.0000000000000000e+00 0.0000000000000000e+00 0.0000000000000000e+00  0.0000000000000000e+00 0.0000000000000000e+00 0.0000000000000000e+00  0.0000000000000000e+00 0.0000000000000000e+00 0.0000000000000000e+00  0.0000000000000000e+00 0.0000000000000000e+00 0.0000000000000000e+00  0.0000000000000000e+00 0.0000000000000000e+00 0.0000000000000000e+00  0.0000000000000000e+00 0.0000000000000000e+00 0.0000000000000000e+00  0.0000000000000000e+00 0.0000000000000000e+00 0.0000000000000000e+00  0.0000000000000000e+00 0.0000000000000000e+00 0.0000000000000000e+00  0.0000000000000000e+00 0.0000000000000000e+00 0.0000000000000000e+00  0.0000000000000000e+00 0.0000000000000000e+00 0.0000000000000000e+00  0.0000000000000000e+00 0.0000000000000000e+00 0.0000000000000000e+00  0.0000000000000000e+00 0.0000000000000000e+00 0.0000000000000000e+00  0.0000000000000000e+00 0.0000000000000000e+00 0.0000000000000000e+00  0.0000000000000000e+00 0.0000000000000000e+00 0.0000000000000000e+00  0.0000000000000000e+00 0.0000000000000000e+00 0.0000000000000000e+00  0.0000000000000000e+00 0.0000000000000000e+00 0.0000000000000000e+00  0.0000000000000000e+00 0.0000000000000000e+00 0.0000000000000000e+00  0.0000000000000000e+00 0.0000000000000000e+00 0.0000000000000000e+00  0.0000000000000000e+00 0.0000000000000000e+00 0.0000000000000000e+00  0.0000000000000000e+00 0.0000000000000000e+00 0.0000000000000000e+00  0.0000000000000000e+00 0.0000000000000000e+00 0.0000000000000000e+00  0.0000000000000000e+00 0.0000000000000000e+00 0.0000000000000000e+00  0.0000000000000000e+00 0.0000000000000000e+00 0.0000000000000000e+00  0.0000000000000000e+00 0.0000000000000000e+00 0.0000000000000000e+00  0.0000000000000000e+00 0.0000000000000000e+00 0.0000000000000000e+00  0.0000000000000000e+00 0.0000000000000000e+00 0.0000000000000000e+00  0.0000000000000000e+00 0.0000000000000000e+00 0.0000000000000000e+00  0.0000000000000000e+00 0.0000000000000000e+00 0.0000000000000000e+00  0.0000000000000000e+00 0.0000000000000000e+00 0.0000000000000000e+00  0.0000000000000000e+00 0.0000000000000000e+00 0.0000000000000000e+00  0.0000000000000000e+00 0.0000000000000000e+00 0.0000000000000000e+00  0.0000000000000000e+00 0.0000000000000000e+00 0.0000000000000000e+00  0.0000000000000000e+00 0.0000000000000000e+00 0.0000000000000000e+00  0.0000000000000000e+00 0.0000000000000000e+00 0.0000000000000000e+00  0.0000000000000000e+00 0.0000000000000000e+00 0.0000000000000000e+00  0.0000000000000000e+00 0.0000000000000000e+00 0.0000000000000000e+00  0.0000000000000000e+00 0.0000000000000000e+00 0.0000000000000000e+00  0.0000000000000000e+00 0.0000000000000000e+00 0.0000000000000000e+00  0.0000000000000000e+00 0.0000000000000000e+00 0.0000000000000000e+00  0.0000000000000000e+00 0.0000000000000000e+00 0.0000000000000000e+00  0.0000000000000000e+00 0.0000000000000000e+00 0.0000000000000000e+00  0.0000000000000000e+00 0.0000000000000000e+00 0.0000000000000000e+00  0.0000000000000000e+00 0.0000000000000000e+00 0.0000000000000000e+00  0.0000000000000000e+00 0.0000000000000000e+00 0.0000000000000000e+00  0.0000000000000000e+00 0.0000000000000000e+00 0.0000000000000000e+00  0.0000000000000000e+00 0.0000000000000000e+00 0.0000000000000000e+00  0.0000000000000000e+00 0.0000000000000000e+00 0.0000000000000000e+00  0.0000000000000000e+00 0.0000000000000000e+00 0.0000000000000000e+00  0.0000000000000000e+00 0.0000000000000000e+00 0.0000000000000000e+00  0.0000000000000000e+00 0.0000000000000000e+00 0.0000000000000000e+00  0.0000000000000000e+00 0.0000000000000000e+00 0.0000000000000000e+00  0.0000000000000000e+00 0.0000000000000000e+00 0.0000000000000000e+00  0.0000000000000000e+00 0.0000000000000000e+00 0.0000000000000000e+00  0.0000000000000000e+00 0.0000000000000000e+00 0.0000000000000000e+00  0.0000000000000000e+00 0.0000000000000000e+00 0.0000000000000000e+00  0.0000000000000000e+00 0.0000000000000000e+00 0.0000000000000000e+00  0.0000000000000000e+00 0.0000000000000000e+00 0.0000000000000000e+00  0.0000000000000000e+00 0.0000000000000000e+00 0.0000000000000000e+00  0.0000000000000000e+00 0.0000000000000000e+00 0.0000000000000000e+00  0.0000000000000000e+00 0.0000000000000000e+00 0.0000000000000000e+00  0.0000000000000000e+00 0.0000000000000000e+00 0.0000000000000000e+00  0.0000000000000000e+00 0.0000000000000000e+00 0.0000000000000000e+00  0.0000000000000000e+00 0.0000000000000000e+00 0.0000000000000000e+00  0.0000000000000000e+00 0.0000000000000000e+00 0.0000000000000000e+00  0.0000000000000000e+00 0.0000000000000000e+00 0.0000000000000000e+00  0.0000000000000000e+00 0.0000000000000000e+00 0.0000000000000000e+00  0.0000000000000000e+00 0.0000000000000000e+00 0.0000000000000000e+00  0.0000000000000000e+00 0.0000000000000000e+00 0.0000000000000000e+00  0.0000000000000000e+00 0.0000000000000000e+00 0.0000000000000000e+00  0.0000000000000000e+00 0.0000000000000000e+00 0.0000000000000000e+00  0.0000000000000000e+00 0.0000000000000000e+00 0.0000000000000000e+00  0.0000000000000000e+00 0.0000000000000000e+00 0.0000000000000000e+00  0.0000000000000000e+00 0.0000000000000000e+00 0.0000000000000000e+00  0.0000000000000000e+00 0.0000000000000000e+00 0.0000000000000000e+00  0.0000000000000000e+00 0.0000000000000000e+00 0.0000000000000000e+00  0.0000000000000000e+00 0.0000000000000000e+00 0.0000000000000000e+00  0.0000000000000000e+00 0.0000000000000000e+00 0.0000000000000000e+00  0.0000000000000000e+00 0.0000000000000000e+00 0.0000000000000000e+00  0.0000000000000000e+00 0.0000000000000000e+00 0.0000000000000000e+00  0.0000000000000000e+00 0.0000000000000000e+00 0.0000000000000000e+00  0.0000000000000000e+00 0.0000000000000000e+00 0.0000000000000000e+00  0.0000000000000000e+00 0.0000000000000000e+00 0.0000000000000000e+00  0.0000000000000000e+00 0.0000000000000000e+00 0.0000000000000000e+00  0.0000000000000000e+00 0.0000000000000000e+00 0.0000000000000000e+00  0.0000000000000000e+00 0.0000000000000000e+00 0.0000000000000000e+00  0.0000000000000000e+00 0.0000000000000000e+00 0.0000000000000000e+00  0.0000000000000000e+00 0.0000000000000000e+00 0.0000000000000000e+00  0.0000000000000000e+00 0.0000000000000000e+00 0.0000000000000000e+00  0.0000000000000000e+00 0.0000000000000000e+00 0.0000000000000000e+00  0.0000000000000000e+00 0.0000000000000000e+00 0.0000000000000000e+00  0.0000000000000000e+00 0.0000000000000000e+00 0.0000000000000000e+00  0.0000000000000000e+00 0.0000000000000000e+00 0.0000000000000000e+00  0.0000000000000000e+00 0.0000000000000000e+00 0.0000000000000000e+00  0.0000000000000000e+00 0.0000000000000000e+00 0.0000000000000000e+00  0.0000000000000000e+00 0.0000000000000000e+00 0.0000000000000000e+00  0.0000000000000000e+00 0.0000000000000000e+00 0.0000000000000000e+00  0.0000000000000000e+00 0.0000000000000000e+00 0.0000000000000000e+00  0.0000000000000000e+00 0.0000000000000000e+00 0.0000000000000000e+00  0.0000000000000000e+00 0.0000000000000000e+00 0.0000000000000000e+00  0.0000000000000000e+00 0.0000000000000000e+00 0.0000000000000000e+00  0.0000000000000000e+00 0.0000000000000000e+00 0.0000000000000000e+00  0.0000000000000000e+00 0.0000000000000000e+00 0.0000000000000000e+00  0.0000000000000000e+00 0.0000000000000000e+00 0.0000000000000000e+00  0.0000000000000000e+00 0.0000000000000000e+00 0.0000000000000000e+00  0.0000000000000000e+00 0.0000000000000000e+00 0.0000000000000000e+00  0.0000000000000000e+00 0.0000000000000000e+00 0.0000000000000000e+00  0.0000000000000000e+00 0.0000000000000000e+00 0.0000000000000000e+00  0.0000000000000000e+00 0.0000000000000000e+00 0.0000000000000000e+00  0.0000000000000000e+00 0.0000000000000000e+00 0.0000000000000000e+00  0.0000000000000000e+00 0.0000000000000000e+00 0.0000000000000000e+00  0.0000000000000000e+00 0.0000000000000000e+00 0.0000000000000000e+00  0.0000000000000000e+00 0.0000000000000000e+00 0.0000000000000000e+00  0.0000000000000000e+00 0.0000000000000000e+00 0.0000000000000000e+00  0.0000000000000000e+00 0.0000000000000000e+00 0.0000000000000000e+00  0.0000000000000000e+00 0.0000000000000000e+00 0.0000000000000000e+00  0.0000000000000000e+00 0.0000000000000000e+00 0.0000000000000000e+00  0.0000000000000000e+00 0.0000000000000000e+00 0.0000000000000000e+00  0.0000000000000000e+00 0.0000000000000000e+00 0.0000000000000000e+00  0.0000000000000000e+00 0.0000000000000000e+00 0.0000000000000000e+00  0.0000000000000000e+00 0.0000000000000000e+00 0.0000000000000000e+00  0.0000000000000000e+00 0.0000000000000000e+00 0.0000000000000000e+00  0.0000000000000000e+00 0.0000000000000000e+00 0.0000000000000000e+00  0.0000000000000000e+00 0.0000000000000000e+00 0.0000000000000000e+00  0.0000000000000000e+00 0.0000000000000000e+00 0.0000000000000000e+00  0.0000000000000000e+00 0.0000000000000000e+00 0.0000000000000000e+00  0.0000000000000000e+00 0.0000000000000000e+00 0.0000000000000000e+00  0.0000000000000000e+00 0.0000000000000000e+00 0.0000000000000000e+00  0.0000000000000000e+00 0.0000000000000000e+00 0.0000000000000000e+00  0.0000000000000000e+00 0.0000000000000000e+00 0.0000000000000000e+00  0.0000000000000000e+00 0.0000000000000000e+00 0.0000000000000000e+00  0.0000000000000000e+00 0.0000000000000000e+00 0.0000000000000000e+00  0.0000000000000000e+00 0.0000000000000000e+00 0.0000000000000000e+00  0.0000000000000000e+00 0.0000000000000000e+00 0.0000000000000000e+00  0.0000000000000000e+00 0.0000000000000000e+00 0.0000000000000000e+00  0.0000000000000000e+00 0.0000000000000000e+00 0.0000000000000000e+00  0.0000000000000000e+00 0.0000000000000000e+00 0.0000000000000000e+00  0.0000000000000000e+00 0.0000000000000000e+00 0.0000000000000000e+00  0.0000000000000000e+00 0.0000000000000000e+00 0.0000000000000000e+00  0.0000000000000000e+00 0.0000000000000000e+00 0.0000000000000000e+00  0.0000000000000000e+00 0.0000000000000000e+00 0.0000000000000000e+00  0.0000000000000000e+00 0.0000000000000000e+00 0.0000000000000000e+00  0.0000000000000000e+00 0.0000000000000000e+00 0.0000000000000000e+00  0.0000000000000000e+00 0.0000000000000000e+00 0.0000000000000000e+00  0.0000000000000000e+00 0.0000000000000000e+00 0.0000000000000000e+00  0.0000000000000000e+00 0.0000000000000000e+00 0.0000000000000000e+00  0.0000000000000000e+00 0.0000000000000000e+00 0.0000000000000000e+00  0.0000000000000000e+00 0.0000000000000000e+00 0.0000000000000000e+00  0.0000000000000000e+00 0.0000000000000000e+00 0.0000000000000000e+00  0.0000000000000000e+00 0.0000000000000000e+00 0.0000000000000000e+00  0.0000000000000000e+00 0.0000000000000000e+00 0.0000000000000000e+00  0.0000000000000000e+00 0.0000000000000000e+00 0.0000000000000000e+00  0.0000000000000000e+00 0.0000000000000000e+00 0.0000000000000000e+00  0.0000000000000000e+00 0.0000000000000000e+00 0.0000000000000000e+00  0.0000000000000000e+00 0.0000000000000000e+00 0.0000000000000000e+00  0.0000000000000000e+00 0.0000000000000000e+00 0.0000000000000000e+00  0.0000000000000000e+00 0.0000000000000000e+00 0.0000000000000000e+00  0.0000000000000000e+00 0.0000000000000000e+00 0.0000000000000000e+00  0.0000000000000000e+00 0.0000000000000000e+00 0.0000000000000000e+00  0.0000000000000000e+00 0.0000000000000000e+00 0.0000000000000000e+00  0.0000000000000000e+00 0.0000000000000000e+00 0.0000000000000000e+00  0.0000000000000000e+00 0.0000000000000000e+00 0.0000000000000000e+00  0.0000000000000000e+00 0.0000000000000000e+00 0.0000000000000000e+00  0.0000000000000000e+00 0.0000000000000000e+00 0.0000000000000000e+00  0.0000000000000000e+00 0.0000000000000000e+00 0.0000000000000000e+00  0.0000000000000000e+00 0.0000000000000000e+00 0.0000000000000000e+00  0.0000000000000000e+00 0.0000000000000000e+00 0.0000000000000000e+00  0.0000000000000000e+00 0.0000000000000000e+00 0.0000000000000000e+00  0.0000000000000000e+00 0.0000000000000000e+00 0.0000000000000000e+00  0.0000000000000000e+00 0.0000000000000000e+00 0.0000000000000000e+00  0.0000000000000000e+00 0.0000000000000000e+00 0.0000000000000000e+00  0.0000000000000000e+00 0.0000000000000000e+00 0.0000000000000000e+00  0.0000000000000000e+00 0.0000000000000000e+00 0.0000000000000000e+00  0.0000000000000000e+00 0.0000000000000000e+00 0.0000000000000000e+00  0.0000000000000000e+00 0.0000000000000000e+00 0.0000000000000000e+00  0.0000000000000000e+00 0.0000000000000000e+00 0.0000000000000000e+00  0.0000000000000000e+00 0.0000000000000000e+00 0.0000000000000000e+00  0.0000000000000000e+00 0.0000000000000000e+00 0.0000000000000000e+00  0.0000000000000000e+00 0.0000000000000000e+00 0.0000000000000000e+00  0.0000000000000000e+00 0.0000000000000000e+00 0.0000000000000000e+00  0.0000000000000000e+00 0.0000000000000000e+00 0.0000000000000000e+00  0.0000000000000000e+00 0.0000000000000000e+00 0.0000000000000000e+00  0.0000000000000000e+00 0.0000000000000000e+00 0.0000000000000000e+00  0.0000000000000000e+00 0.0000000000000000e+00 0.0000000000000000e+00  0.0000000000000000e+00 0.0000000000000000e+00 0.0000000000000000e+00  0.0000000000000000e+00 0.0000000000000000e+00 0.0000000000000000e+00  0.0000000000000000e+00 0.0000000000000000e+00 0.0000000000000000e+00  0.0000000000000000e+00 0.0000000000000000e+00 0.0000000000000000e+00  0.0000000000000000e+00 0.0000000000000000e+00 0.0000000000000000e+00  0.0000000000000000e+00 0.0000000000000000e+00 0.0000000000000000e+00  0.0000000000000000e+00 0.0000000000000000e+00 0.0000000000000000e+00  0.0000000000000000e+00 0.0000000000000000e+00 0.0000000000000000e+00  0.0000000000000000e+00 0.0000000000000000e+00 0.0000000000000000e+00  0.0000000000000000e+00 0.0000000000000000e+00 0.0000000000000000e+00  0.0000000000000000e+00 0.0000000000000000e+00 0.0000000000000000e+00  0.0000000000000000e+00 0.0000000000000000e+00 0.0000000000000000e+00  0.0000000000000000e+00 0.0000000000000000e+00 0.0000000000000000e+00  0.0000000000000000e+00 0.0000000000000000e+00 0.0000000000000000e+00  0.0000000000000000e+00 0.0000000000000000e+00 0.0000000000000000e+00  0.0000000000000000e+00 0.0000000000000000e+00 0.0000000000000000e+00  0.0000000000000000e+00 0.0000000000000000e+00 0.0000000000000000e+00  0.0000000000000000e+00 0.0000000000000000e+00 0.0000000000000000e+00  0.0000000000000000e+00 0.0000000000000000e+00 0.0000000000000000e+00  0.0000000000000000e+00 0.0000000000000000e+00 0.0000000000000000e+00  0.0000000000000000e+00 0.0000000000000000e+00 0.0000000000000000e+00  0.0000000000000000e+00 0.0000000000000000e+00 0.0000000000000000e+00  0.0000000000000000e+00 0.0000000000000000e+00 0.0000000000000000e+00  0.0000000000000000e+00 0.0000000000000000e+00 0.0000000000000000e+00  0.0000000000000000e+00 0.0000000000000000e+00 0.0000000000000000e+00  0.0000000000000000e+00 0.0000000000000000e+00 0.0000000000000000e+00  0.0000000000000000e+00 0.0000000000000000e+00 0.0000000000000000e+00  0.0000000000000000e+00 0.0000000000000000e+00 0.0000000000000000e+00  0.0000000000000000e+00 0.0000000000000000e+00 0.0000000000000000e+00  0.0000000000000000e+00 0.0000000000000000e+00 0.0000000000000000e+00  0.0000000000000000e+00 0.0000000000000000e+00 0.0000000000000000e+00  0.0000000000000000e+00 0.0000000000000000e+00 0.0000000000000000e+00  0.0000000000000000e+00 0.0000000000000000e+00 0.0000000000000000e+00  0.0000000000000000e+00 0.0000000000000000e+00 0.0000000000000000e+00  0.0000000000000000e+00 0.0000000000000000e+00 0.0000000000000000e+00  0.0000000000000000e+00 0.0000000000000000e+00 0.0000000000000000e+00  0.0000000000000000e+00 0.0000000000000000e+00 0.0000000000000000e+00  0.0000000000000000e+00 0.0000000000000000e+00 0.0000000000000000e+00  0.0000000000000000e+00 0.0000000000000000e+00 0.0000000000000000e+00  0.0000000000000000e+00 0.0000000000000000e+00 0.0000000000000000e+00  0.0000000000000000e+00 0.0000000000000000e+00 0.0000000000000000e+00  0.0000000000000000e+00 0.0000000000000000e+00 0.0000000000000000e+00  0.0000000000000000e+00 0.0000000000000000e+00 0.0000000000000000e+00  0.0000000000000000e+00 0.0000000000000000e+00 0.0000000000000000e+00  0.0000000000000000e+00 0.0000000000000000e+00 0.0000000000000000e+00  0.0000000000000000e+00 0.0000000000000000e+00 0.0000000000000000e+00  0.0000000000000000e+00 0.0000000000000000e+00 0.0000000000000000e+00  0.0000000000000000e+00 0.0000000000000000e+00 0.0000000000000000e+00  0.0000000000000000e+00 0.0000000000000000e+00 0.0000000000000000e+00  0.0000000000000000e+00 0.0000000000000000e+00 0.0000000000000000e+00  0.0000000000000000e+00 0.0000000000000000e+00 0.0000000000000000e+00  0.0000000000000000e+00 0.0000000000000000e+00 0.0000000000000000e+00  0.0000000000000000e+00 0.0000000000000000e+00 0.0000000000000000e+00  0.0000000000000000e+00 0.0000000000000000e+00 0.0000000000000000e+00  0.0000000000000000e+00 0.0000000000000000e+00 0.0000000000000000e+00  0.0000000000000000e+00 0.0000000000000000e+00 0.0000000000000000e+00  0.0000000000000000e+00 0.0000000000000000e+00 0.0000000000000000e+00  0.0000000000000000e+00 0.0000000000000000e+00 0.0000000000000000e+00  0.0000000000000000e+00 0.0000000000000000e+00 0.0000000000000000e+00  0.0000000000000000e+00 0.0000000000000000e+00 0.0000000000000000e+00  0.0000000000000000e+00 0.0000000000000000e+00 0.0000000000000000e+00  0.0000000000000000e+00 0.0000000000000000e+00 0.0000000000000000e+00  0.0000000000000000e+00 0.0000000000000000e+00 0.0000000000000000e+00  0.0000000000000000e+00 0.0000000000000000e+00 0.0000000000000000e+00  0.0000000000000000e+00 0.0000000000000000e+00 0.0000000000000000e+00  0.0000000000000000e+00 0.0000000000000000e+00 0.0000000000000000e+00  0.0000000000000000e+00 0.0000000000000000e+00 0.0000000000000000e+00  0.0000000000000000e+00 0.0000000000000000e+00 0.0000000000000000e+00  0.0000000000000000e+00 0.0000000000000000e+00 0.0000000000000000e+00  0.0000000000000000e+00 0.0000000000000000e+00 0.0000000000000000e+00  0.0000000000000000e+00 0.0000000000000000e+00 0.0000000000000000e+00  0.0000000000000000e+00 0.0000000000000000e+00 0.0000000000000000e+00  0.0000000000000000e+00 0.0000000000000000e+00 0.0000000000000000e+00  0.0000000000000000e+00 0.0000000000000000e+00 0.0000000000000000e+00  0.0000000000000000e+00 0.0000000000000000e+00 0.0000000000000000e+00  0.0000000000000000e+00 0.0000000000000000e+00 0.0000000000000000e+00  0.0000000000000000e+00 0.0000000000000000e+00 0.0000000000000000e+00  0.0000000000000000e+00 0.0000000000000000e+00 0.0000000000000000e+00  0.0000000000000000e+00 0.0000000000000000e+00 0.0000000000000000e+00  0.0000000000000000e+00 0.0000000000000000e+00 0.0000000000000000e+00  0.0000000000000000e+00 0.0000000000000000e+00 0.0000000000000000e+00  0.0000000000000000e+00 0.0000000000000000e+00 0.0000000000000000e+00  0.0000000000000000e+00 0.0000000000000000e+00 0.0000000000000000e+00  0.0000000000000000e+00 0.0000000000000000e+00 0.0000000000000000e+00  0.0000000000000000e+00 0.0000000000000000e+00 0.0000000000000000e+00  0.0000000000000000e+00 0.0000000000000000e+00 0.0000000000000000e+00  0.0000000000000000e+00 0.0000000000000000e+00 0.0000000000000000e+00  0.0000000000000000e+00 0.0000000000000000e+00 0.0000000000000000e+00  0.0000000000000000e+00 0.0000000000000000e+00 0.0000000000000000e+00  0.0000000000000000e+00 0.0000000000000000e+00 0.0000000000000000e+00  0.0000000000000000e+00 0.0000000000000000e+00 0.0000000000000000e+00  0.0000000000000000e+00 0.0000000000000000e+00 0.0000000000000000e+00  0.0000000000000000e+00 0.0000000000000000e+00 0.0000000000000000e+00  0.0000000000000000e+00 0.0000000000000000e+00 0.0000000000000000e+00  0.0000000000000000e+00 0.0000000000000000e+00 0.0000000000000000e+00  0.0000000000000000e+00 0.0000000000000000e+00 0.0000000000000000e+00  0.0000000000000000e+00 0.0000000000000000e+00 0.0000000000000000e+00  0.0000000000000000e+00 0.0000000000000000e+00 0.0000000000000000e+00  0.0000000000000000e+00 0.0000000000000000e+00 0.0000000000000000e+00  0.0000