<?xml version="1.0"?>
<VTKFile type="UnstructuredGrid"  version="0.1"  >
<UnstructuredGrid>
<Piece  NumberOfPoints="178" NumberOfCells="674">
<Points>
<DataArray  type="Float64"  NumberOfComponents="3"  format="ascii">2.449293598294707e-15 0 -40  2.449293598294707e-15 0 40  6.123233995736766e-16 0 -10  6.123233995736766e-16 0 10  13.68080573302674 0 -37.58770483143634  25.71150438746157 0 -30.64177772475912  34.64101615137754 0 -20  39.39231012048832 0 -6.945927106677217  39.39231012048832 0 6.945927106677217  34.64101615137755 0 19.99999999999999  25.71150438746158 0 30.64177772475911  13.68080573302675 0 37.58770483143633  7.071067811865476 0 -7.071067811865475  10 0 0  7.071067811865476 0 7.071067811865475  19.88364730094672 24.78683072728187 -24.2951351613575  17.98270184681063 12.5102692981844 -33.46812806799355  28.99116041356069 12.69635192714123 -24.46048375681415  7.237621988488849 21.58154141153451 -32.89154751990188  -39.36214962262878 5.202794470683735 4.853051285697258  -35.5189953359923 -1.506959493679601 18.33384966138226  -37.81346799402737 -11.04047124606128 6.946195572366354  20.87822220865791 -22.98116080156483 -25.21836802052274  25.59760841452864 -10.33019241321131 -28.94908579148026  12.28492031124684 -14.24815826552631 -35.29972689677399  -12.24861777395123 -25.46610373699905 -28.30987324387111  -19.54435156758539 -31.82602304537978 -14.32210106505247  -3.671376879029347 -34.57808892320583 -19.7706033856076  -17.77170531789416 8.348073085964913 -34.84933522816928  -6.534493472484981 2.76966405082319 -39.36533190643296  -5.153845176600543 15.73721991398785 -36.41123163632913  5.554015899200271 10.36808145667925 -38.2316072680589  -2.71336125059527 -13.20044184426797 -37.66146579515815  3.609455226854242 -25.77332375789665 -30.37610270321021  -23.99661039875652 30.73551300752781 -8.915768589099844  -35.01551633224629 18.32161834039321 -6.183196372036132  -27.7524491823175 23.01559838521607 -17.32292687028738  -34.2527566821574 11.06813150944455 -17.44262378664867  -7.892667966402965 -28.68217513455986 26.74020609349435  6.204345380336262 -33.30581856094935 21.26566595210744  -6.870870045559988 -36.26667073670627 15.41167539537346  5.895403296768752 -38.71674219939803 8.139907458552559  -15.69695417297848 -4.000629662057642 -36.573222335453  -38.73224107680769 5.890902788242646 -8.069124209449596  -36.79831235280015 -0.3112302343094218 -15.67760644125905  6.549778458285209 32.17410594734563 -22.84572845492919  37.2941721924684 -9.047724270793355 11.28199477035039  38.2202382960584 -11.79846234238581 -0.09834097729102781  33.45964462971772 -20.06809041281489 8.816117537560919  -28.23724784502398 -1.475488093660826 -28.29276884690068  -35.10301981075938 -10.33540665569553 -16.15417498440695  -26.92779384545655 -19.43402000588806 -22.29826865537625  35.37870075326788 11.10355115457036 -15.00195603141677  37.09980606790693 14.91459734145121 -1.076650298877417  29.39086495135524 22.89078322704729 -14.5667120745736  19.07220510099907 32.64629518728071 -13.05643148530093  16.85555635183622 14.91815945293123 33.06567311589153  -18.5588067624665 -13.92565399967998 -32.58292270860036  4.709037372926321 33.12157728796791 21.92683481439015  -7.276447138605693 36.94195327967204 13.50353305330147  5.628857545908421 38.12029185667203 10.73123066055397  -4.706290316863552 27.5256261806974 -28.63897230722328  -11.57435162439104 30.18989540151367 23.55004458850599  26.31927260185512 -29.43090800637617 6.41229628366162  31.36234176753829 -24.68208136076741 -2.682979417845297  18.46271884664508 -35.38243864844116 -2.685339471842178  -1.589717019906482 39.9634207790271 0.6307134333794873  -21.94211839843747 -27.90658727048163 18.43273791665104  -19.38783795087605 -15.49421006966028 31.36943088275285  -28.39550706379261 -3.75404188077822 27.9213600698008  -19.46029063331866 2.229971306707804 34.87584144415773  16.18354962403354 -33.92105329756571 13.69141573213485  3.95573239527704 -39.53106007506254 -4.652684231575572  12.20297257281187 -33.40276900614205 -18.31235875329876  25.33738549230237 -27.96283006454366 -13.27015565831533  34.24703245759387 -14.21840125598397 -14.99926110087912  -10.61943580316682 37.37170090126291 -9.517539333722961  -16.58413267416351 30.55427268400329 -19.78390669704325  -5.138665752805475 34.67803809394554 -19.26208161741109  28.91117908897597 13.99959756455797 23.83600200779445  25.25619170295996 -25.10916073886747 18.21139279827473  -22.13788052563738 31.07624962165663 12.00753743633937  -10.99466661357387 -38.20246169281176 -4.437254406230776  19.93134369032896 26.31051523568704 22.59421002670074  30.77725549521458 23.23085712018617 10.63427579310312  18.82149389896602 33.44077007199025 11.29009585448531  -30.63342835654954 -15.2806414567032 20.6904582790191  27.05486437240869 29.3969047746 -1.963747301378425  -2.855364429377 -17.76526626216052 35.72453230778522  10.72468899314744 -26.00867195371562 28.43466245982653  3.233056604964661 -7.854995531268879 39.08767568163705  13.1632718768092 -12.88631212998264 35.50593236609717  -24.8129551011487 17.08472858007059 -26.31405154083457  -32.47004299928874 -21.88259711298566 8.176077984895484  -39.11691825725016 -6.406770543482292 -5.368425957277976  22.47196772012414 -16.35721061105511 28.76547110358676  -33.19424603112175 -21.44981724346117 -6.16825507315268  31.47985892518635 -12.97443378302567 20.9924403074118  -15.36231329184293 20.03066868270535 -31.02856172056566  -26.84416026918226 21.69371976811911 20.21814981804159  -34.89949657429278 11.09258216001103 16.09284809734844  -33.33842082421543 20.54152561398452 8.160601840399833  -28.77591242580136 8.512398414566563 26.44779645441744  36.36993364516268 10.02128790549056 13.29668061441398  -28.92709770815203 27.60466880951951 1.097851583669779  -6.294583760480129 10.05949488046475 38.19927719253603  -0.5732106132877703 22.25229659376332 33.23411990554291  5.961070500486472 10.32930728763289 38.18076805730713  15.69016652060703 36.79208129472606 -0.4017817291655198  -23.87893484396823 -32.05026657673804 1.605267291620958  -16.44435478880617 16.61941719690225 32.45578789083971  10.67362182951251 26.67086351114236 27.83413078597155  -14.26494849606465 -36.60552151699818 7.519776517504123  -16.82045228930869 36.26229629574933 1.455421637318526  -9.669985168451094 -5.610921413932707 38.40584522867069  -4.759318982813219 -39.43908311313498 4.680556165143748  4.929698338875676 38.15951181373291 -10.93388002610532  6.331267177198703 -7.34305917145209 -38.80714544945917  -3.874695763035156 -5.434215034896615 -7.446881206144019  3.404479944026854 -5.899697724714222 -7.321412641541299  -3.874695763035153 5.434215034896617 7.446881206144019  -6.695121459858198 7.262827408017331 1.55778261612412  -0.3178716214830341 9.994807183174938 -0.05279207715566485  -6.695121459858203 -7.262827408017326 -1.557782616124119  -0.3178716214830321 -9.994807183174938 0.05279207715566547  3.404479944026856 5.899697724714219 7.321412641541301  8.005297600263845 5.983203940180543 0.3412930433190445  8.005297600263843 -5.983203940180546 -0.3412930433190435  -8.05120342482333 1.327090644721389 5.780739903576882  -4.330331032753904 -1.042833389081882 8.953252574868225  -5.606081433455704 -6.373604325737287 5.2866831624759  3.196409336378548 -7.561827574594316 5.709792560716817  -10 -3.216245299353273e-15 1.645257237962959e-16  -8.05120342482333 -1.327090644721383 -5.780739903576883  -4.330331032753905 1.042833389081885 -8.953252574868225  -5.606081433455699 6.373604325737289 -5.286683162475901  0.4631774941740192 4.300786277589142 -9.016024844874353  3.196409336378557 7.561827574594314 -5.709792560716815  0.463177494174015 -4.300786277589141 9.016024844874353  -4.364766504141945 5.959686077143495 -23.99417745894191  -17.32206894581589 6.492370224912959 -15.46622156174631  21.30835213115306 -7.607319611115857 8.826208444545252  -4.323140717896897 -5.902849905380496 23.76535044125745  -17.23209730169049 -6.458648547367763 15.38588927657467  -3.078910292976577 17.55101558280523 -14.76581400580386  21.09300810634053 7.530439390017117 -8.737010028891884  10.11820079106462 -11.40689218156813 19.61560153329077  9.286858032571377 -4.820286805617798 -22.42045861406733  10.14223501198011 10.86013031339685 -19.09618190810159  -3.061453769240007 -17.45150644126858 14.68209614521198  -22.31848346636936 8.984402796765265 5.46142323802996  -6.622900663982764 21.21276150972698 9.758593188156286  -6.738463728411993 -21.582903211897 -9.928870984934054  9.968451978132775 -21.35284145819848 -6.825975425708355  -22.49660721735682 -9.056107289095735 -5.505010840850479  18.15356974031381 10.76900621033219 12.09442645644986  8.538306212446731 4.431755566181049 20.61329465778334  10.56154041990615 21.64293764431885 -2.747145880614288  -15.49786364085579 -18.78384422729284 4.906273590332722  21.60056326573593 -6.867778473783182 -5.84651869192715  -11.77118341119598 4.888114729564563 17.45730835229231  -11.80627295044741 -4.902686050703386 -17.50934805681934  -14.95591423677991 18.77781128893655 -4.819258877917026  5.957389685144256 17.43078429069943 15.32730299013358  12.21720775169839 -18.84061606183486 7.308107711905766  -0.5141391421913668 -12.91437214785632 -18.08347403977128  -2.584952713747109 22.67983420511977 -2.668577670709162  -0.3593501861438191 -23.89371544024119 2.432898011868648  21.60056326573592 3.250893619673534 2.874776883476643  -16.12722543106809 8.115052017796405 -3.620338880917837  -5.994258944348162 8.540089865480516 -14.50195949428324  -0.2036798652376973 7.667303510131322 16.62867142135736  -16.10757060284825 -8.105161912763366 3.615926644038888  7.17237910875163 15.36353631669454 4.911342668610937  -12.63228235989196 -9.228907399196668 -8.915542376366064  -12.60803396435314 9.211191978449172 8.898428477877573  -5.9703697868867 -8.506054707269017 14.4441642610317  -1.77635683940025e-15 8.881784197001252e-16 -8.881784197001252e-16  </DataArray>
</Points>
<Cells>
[...]
<PointData  Vectors="f_187-2"> 
<DataArray  type="Float64"  Name="f_187-2"  NumberOfComponents="3" format="ascii">0.0000000000000000e+00 0.0000000000000000e+00 0.0000000000000000e+00  0.0000000000000000e+00 0.0000000000000000e+00 0.0000000000000000e+00  0.0000000000000000e+00 0.0000000000000000e+00 0.0000000000000000e+00  0.0000000000000000e+00 0.0000000000000000e+00 0.0000000000000000e+00  0.0000000000000000e+00 0.0000000000000000e+00 0.0000000000000000e+00  0.0000000000000000e+00 0.0000000000000000e+00 0.0000000000000000e+00  0.0000000000000000e+00 0.0000000000000000e+00 0.0000000000000000e+00  0.0000000000000000e+00 0.0000000000000000e+00 0.0000000000000000e+00  0.0000000000000000e+00 0.0000000000000000e+00 0.0000000000000000e+00  0.0000000000000000e+00 0.0000000000000000e+00 0.0000000000000000e+00  0.0000000000000000e+00 0.0000000000000000e+00 0.0000000000000000e+00  0.0000000000000000e+00 0.0000000000000000e+00 0.0000000000000000e+00  0.0000000000000000e+00 0.0000000000000000e+00 0.0000000000000000e+00  0.0000000000000000e+00 0.0000000000000000e+00 0.0000000000000000e+00  0.0000000000000000e+00 0.0000000000000000e+00 0.0000000000000000e+00  0.0000000000000000e+00 0.0000000000000000e+00 0.0000000000000000e+00  0.0000000000000000e+00 0.0000000000000000e+00 0.0000000000000000e+00  0.0000000000000000e+00 0.0000000000000000e+00 0.0000000000000000e+00  0.0000000000000000e+00 0.0000000000000000e+00 0.0000000000000000e+00  0.0000000000000000e+00 0.0000000000000000e+00 0.0000000000000000e+00  0.0000000000000000e+00 0.0000000000000000e+00 0.0000000000000000e+00  0.0000000000000000e+00 0.0000000000000000e+00 0.0000000000000000e+00  0.0000000000000000e+00 0.0000000000000000e+00 0.0000000000000000e+00  0.0000000000000000e+00 0.0000000000000000e+00 0.0000000000000000e+00  0.0000000000000000e+00 0.0000000000000000e+00 0.0000000000000000e+00  0.0000000000000000e+00 0.0000000000000000e+00 0.0000000000000000e+00  0.0000000000000000e+00 0.0000000000000000e+00 0.0000000000000000e+00  0.0000000000000000e+00 0.0000000000000000e+00 0.0000000000000000e+00  0.0000000000000000e+00 0.0000000000000000e+00 0.0000000000000000e+00  0.0000000000000000e+00 0.0000000000000000e+00 0.0000000000000000e+00  0.0000000000000000e+00 0.0000000000000000e+00 0.0000000000000000e+00  0.0000000000000000e+00 0.0000000000000000e+00 0.0000000000000000e+00  0.0000000000000000e+00 0.0000000000000000e+00 0.0000000000000000e+00  0.0000000000000000e+00 0.0000000000000000e+00 0.0000000000000000e+00  0.0000000000000000e+00 0.0000000000000000e+00 0.0000000000000000e+00  0.0000000000000000e+00 0.0000000000000000e+00 0.0000000000000000e+00  0.0000000000000000e+00 0.0000000000000000e+00 0.0000000000000000e+00  0.0000000000000000e+00 0.0000000000000000e+00 0.0000000000000000e+00  0.0000000000000000e+00 0.0000000000000000e+00 0.0000000000000000e+00  0.0000000000000000e+00 0.0000000000000000e+00 0.0000000000000000e+00  0.0000000000000000e+00 0.0000000000000000e+00 0.0000000000000000e+00  0.0000000000000000e+00 0.0000000000000000e+00 0.0000000000000000e+00  0.0000000000000000e+00 0.0000000000000000e+00 0.0000000000000000e+00  0.0000000000000000e+00 0.0000000000000000e+00 0.0000000000000000e+00  0.0000000000000000e+00 0.0000000000000000e+00 0.0000000000000000e+00  0.0000000000000000e+00 0.0000000000000000e+00 0.0000000000000000e+00  0.0000000000000000e+00 0.0000000000000000e+00 0.0000000000000000e+00  0.0000000000000000e+00 0.0000000000000000e+00 0.0000000000000000e+00  0.0000000000000000e+00 0.0000000000000000e+00 0.0000000000000000e+00  0.0000000000000000e+00 0.0000000000000000e+00 0.0000000000000000e+00  0.0000000000000000e+00 0.0000000000000000e+00 0.0000000000000000e+00  0.0000000000000000e+00 0.0000000000000000e+00 0.0000000000000000e+00  0.0000000000000000e+00 0.0000000000000000e+00 0.0000000000000000e+00  0.0000000000000000e+00 0.0000000000000000e+00 0.0000000000000000e+00  0.0000000000000000e+00 0.0000000000000000e+00 0.0000000000000000e+00  0.0000000000000000e+00 0.0000000000000000e+00 0.0000000000000000e+00  0.0000000000000000e+00 0.0000000000000000e+00 0.0000000000000000e+00  0.0000000000000000e+00 0.0000000000000000e+00 0.0000000000000000e+00  0.0000000000000000e+00 0.0000000000000000e+00 0.0000000000000000e+00  0.0000000000000000e+00 0.0000000000000000e+00 0.0000000000000000e+00  0.0000000000000000e+00 0.0000000000000000e+00 0.0000000000000000e+00  0.0000000000000000e+00 0.0000000000000000e+00 0.0000000000000000e+00  0.0000000000000000e+00 0.0000000000000000e+00 0.0000000000000000e+00  0.0000000000000000e+00 0.0000000000000000e+00 0.0000000000000000e+00  0.0000000000000000e+00 0.0000000000000000e+00 0.0000000000000000e+00  0.0000000000000000e+00 0.0000000000000000e+00 0.0000000000000000e+00  0.0000000000000000e+00 0.0000000000000000e+00 0.0000000000000000e+00  0.0000000000000000e+00 0.0000000000000000e+00 0.0000000000000000e+00  0.0000000000000000e+00 0.0000000000000000e+00 0.0000000000000000e+00  0.0000000000000000e+00 0.0000000000000000e+00 0.0000000000000000e+00  0.0000000000000000e+00 0.0000000000000000e+00 0.0000000000000000e+00  0.0000000000000000e+00 0.0000000000000000e+00 0.0000000000000000e+00  0.0000000000000000e+00 0.0000000000000000e+00 0.0000000000000000e+00  0.0000000000000000e+00 0.0000000000000000e+00 0.0000000000000000e+00  0.0000000000000000e+00 0.0000000000000000e+00 0.0000000000000000e+00  0.0000000000000000e+00 0.0000000000000000e+00 0.0000000000000000e+00  0.0000000000000000e+00 0.0000000000000000e+00 0.0000000000000000e+00  0.0000000000000000e+00 0.0000000000000000e+00 0.0000000000000000e+00  0.0000000000000000e+00 0.0000000000000000e+00 0.0000000000000000e+00  0.0000000000000000e+00 0.0000000000000000e+00 0.0000000000000000e+00  0.0000000000000000e+00 0.0000000000000000e+00 0.0000000000000000e+00  0.0000000000000000e+00 0.0000000000000000e+00 0.0000000000000000e+00  0.0000000000000000e+00 0.0000000000000000e+00 0.0000000000000000e+00  0.0000000000000000e+00 0.0000000000000000e+00 0.0000000000000000e+00  0.0000000000000000e+00 0.0000000000000000e+00 0.0000000000000000e+00  0.0000000000000000e+00 0.0000000000000000e+00 0.0000000000000000e+00  0.0000000000000000e+00 0.0000000000000000e+00 0.0000000000000000e+00  0.0000000000000000e+00 0.0000000000000000e+00 0.0000000000000000e+00  0.0000000000000000e+00 0.0000000000000000e+00 0.0000000000000000e+00  0.0000000000000000e+00 0.0000000000000000e+00 0.0000000000000000e+00  0.0000000000000000e+00 0.0000000000000000e+00 0.0000000000000000e+00  0.0000000000000000e+00 0.0000000000000000e+00 0.0000000000000000e+00  0.0000000000000000e+00 0.0000000000000000e+00 0.0000000000000000e+00  0.0000000000000000e+00 0.0000000000000000e+00 0.0000000000000000e+00  0.0000000000000000e+00 0.0000000000000000e+00 0.0000000000000000e+00  0.0000000000000000e+00 0.0000000000000000e+00 0.0000000000000000e+00  0.0000000000000000e+00 0.0000000000000000e+00 0.0000000000000000e+00  0.0000000000000000e+00 0.0000000000000000e+00 0.0000000000000000e+00  0.0000000000000000e+00 0.0000000000000000e+00 0.0000000000000000e+00  0.0000000000000000e+00 0.0000000000000000e+00 0.0000000000000000e+00  0.0000000000000000e+00 0.0000000000000000e+00 0.0000000000000000e+00  0.0000000000000000e+00 0.0000000000000000e+00 0.0000000000000000e+00  0.0000000000000000e+00 0.0000000000000000e+00 0.0000000000000000e+00  0.0000000000000000e+00 0.0000000000000000e+00 0.0000000000000000e+00  0.0000000000000000e+00 0.0000000000000000e+00 0.0000000000000000e+00  0.0000000000000000e+00 0.0000000000000000e+00 0.0000000000000000e+00  0.0000000000000000e+00 0.0000000000000000e+00 0.0000000000000000e+00  0.0000000000000000e+00 0.0000000000000000e+00 0.0000000000000000e+00  0.0000000000000000e+00 0.0000000000000000e+00 0.0000000000000000e+00  0.0000000000000000e+00 0.0000000000000000e+00 0.0000000000000000e+00  0.0000000000000000e+00 0.0000000000000000e+00 0.0000000000000000e+00  0.0000000000000000e+00 0.0000000000000000e+00 0.0000000000000000e+00  0.0000000000000000e+00 0.0000000000000000e+00 0.0000000000000000e+00  0.0000000000000000e+00 0.0000000000000000e+00 0.0000000000000000e+00  0.0000000000000000e+00 0.0000000000000000e+00 0.0000000000000000e+00  0.0000000000000000e+00 0.0000000000000000e+00 0.0000000000000000e+00  0.0000000000000000e+00 0.0000000000000000e+00 0.0000000000000000e+00  0.0000000000000000e+00 0.0000000000000000e+00 0.0000000000000000e+00  0.0000000000000000e+00 0.0000000000000000e+00 0.0000000000000000e+00  0.0000000000000000e+00 0.0000000000000000e+00 0.0000000000000000e+00  0.0000000000000000e+00 0.0000000000000000e+00 0.0000000000000000e+00  0.0000000000000000e+00 0.0000000000000000e+00 0.0000000000000000e+00  0.0000000000000000e+00 0.0000000000000000e+00 0.0000000000000000e+00  0.0000000000000000e+00 0.0000000000000000e+00 0.0000000000000000e+00  0.0000000000000000e+00 0.0000000000000000e+00 0.0000000000000000e+00  0.0000000000000000e+00 0.0000000000000000e+00 0.0000000000000000e+00  0.0000000000000000e+00 0.0000000000000000e+00 0.0000000000000000e+00  0.0000000000000000e+00 0.0000000000000000e+00 0.0000000000000000e+00  0.0000000000000000e+00 0.0000000000000000e+00 0.0000000000000000e+00  0.0000000000000000e+00 0.0000000000000000e+00 0.0000000000000000e+00  0.0000000000000000e+00 0.0000000000000000e+00 0.0000000000000000e+00  0.0000000000000000e+00 0.0000000000000000e+00 0.0000000000000000e+00  0.0000000000000000e+00 0.0000000000000000e+00 0.0000000000000000e+00  0.0000000000000000e+00 0.0000000000000000e+00 0.0000000000000000e+00  0.0000000000000000e+00 0.0000000000000000e+00 0.0000000000000000e+00  0.0000000000000000e+00 0.0000000000000000e+00 0.0000000000000000e+00  0.0000000000000000e+00 0.0000000000000000e+00 0.0000000000000000e+00  0.0000000000000000e+00 0.0000000000000000e+00 0.0000000000000000e+00  0.0000000000000000e+00 0.0000000000000000e+00 0.0000000000000000e+00  0.0000000000000000e+00 0.0000000000000000e+00 0.0000000000000000e+00  0.0000000000000000e+00 0.0000000000000000e+00 0.0000000000000000e+00  0.0000000000000000e+00 0.0000000000000000e+00 0.0000000000000000e+00  0.0000000000000000e+00 0.0000000000000000e+00 0.0000000000000000e+00  0.0000000000000000e+00 0.0000000000000000e+00 0.0000000000000000e+00  0.0000000000000000e+00 0.0000000000000000e+00 0.0000000000000000e+00  0.0000000000000000e+00 0.0000000000000000e+00 0.0000000000000000e+00  0.0000000000000000e+00 0.0000000000000000e+00 0.0000000000000000e+00  0.0000000000000000e+00 0.0000000000000000e+00 0.0000000000000000e+00  0.0000000000000000e+00 0.0000000000000000e+00 0.0000000000000000e+00  0.0000000000000000e+00 0.0000000000000000e+00 0.0000000000000000e+00  0.0000000000000000e+00 0.0000000000000000e+00 0.0000000000000000e+00  0.0000000000000000e+00 0.0000000000000000e+00 0.0000000000000000e+00  0.0000000000000000e+00 0.0000000000000000e+00 0.0000000000000000e+00  0.0000000000000000e+00 0.0000000000000000e+00 0.0000000000000000e+00  0.0000000000000000e+00 0.0000000000000000e+00 0.0000000000000000e+00  0.0000000000000000e+00 0.0000000000000000e+00 0.0000000000000000e+00  0.0000000000000000e+00 0.0000000000000000e+00 0.0000000000000000e+00  0.0000000000000000e+00 0.0000000000000000e+00 0.0000000000000000e+00  0.0000000000000000e+00 0.0000000000000000e+00 0.0000000000000000e+00  0.0000000000000000e+00 0.0000000000000000e+00 0.0000000000000000e+00  0.0000000000000000e+00 0.0000000000000000e+00 0.0000000000000000e+00  0.0000000000000000e+00 0.0000000000000000e+00 0.0000000000000000e+00  0.0000000000000000e+00 0.0000000000000000e+00 0.0000000000000000e+00  0.0000000000000000e+00 0.0000000000000000e+00 0.0000000000000000e+00  0.0000000000000000e+00 0.0000000000000000e+00 0.0000000000000000e+00  0.0000000000000000e+00 0.0000000000000000e+00 0.0000000000000000e+00  0.0000000000000000e+00 0.0000000000000000e+00 0.0000000000000000e+00  0.0000000000000000e+00 0.0000000000000000e+00 0.0000000000000000e+00  0.0000000000000000e+00 0.0000000000000000e+00 0.0000000000000000e+00  0.0000000000000000e+00 0.0000000000000000e+00 0.0000000000000000e+00  0.0000000000000000e+00 0.0000000000000000e+00 0.0000000000000000e+00  0.0000000000000000e+00 0.0000000000000000e+00 0.0000000000000000e+00  0.0000000000000000e+00 0.0000000000000000e+00 0.0000000000000000e+00  0.0000000000000000e+00 0.0000000000000000e+00 0.0000000000000000e+00  0.0000000000000000e+00 0.0000000000000000e+00 0.0000000000000000e+00  0.0000000000000000e+00 0.0000000000000000e+00 0.0000000000000000e+00  0.0000000000000000e+00 0.0000000000000000e+00 0.0000000000000000e+00  0.0000000000000000e+00 0.0000000000000000e+00 0.0000000000000000e+00  </DataArray> 
</PointData> 
</Piece>
</UnstructuredGrid>
</VTKFile>